 Entering Gaussian System, Link 0=/local/apl/lx/g09d01/g09/._.g09
 Initial command:
 /local/apl/lx/g09d01/g09/l1.exe "/work/users/bbm/tmp.132180/Gau-132236.inp" -scrdir="/work/users/bbm/tmp.132180/"
 Entering Link 1 = /local/apl/lx/g09d01/g09/l1.exe PID=    132237.
  
 Copyright (c) 1988,1990,1992,1993,1995,1998,2003,2009,2013,
            Gaussian, Inc.  All Rights Reserved.
  
 This is part of the Gaussian(R) 09 program.  It is based on
 the Gaussian(R) 03 system (copyright 2003, Gaussian, Inc.),
 the Gaussian(R) 98 system (copyright 1998, Gaussian, Inc.),
 the Gaussian(R) 94 system (copyright 1995, Gaussian, Inc.),
 the Gaussian 92(TM) system (copyright 1992, Gaussian, Inc.),
 the Gaussian 90(TM) system (copyright 1990, Gaussian, Inc.),
 the Gaussian 88(TM) system (copyright 1988, Gaussian, Inc.),
 the Gaussian 86(TM) system (copyright 1986, Carnegie Mellon
 University), and the Gaussian 82(TM) system (copyright 1983,
 Carnegie Mellon University). Gaussian is a federally registered
 trademark of Gaussian, Inc.
  
 This software contains proprietary and confidential information,
 including trade secrets, belonging to Gaussian, Inc.
  
 This software is provided under written license and may be
 used, copied, transmitted, or stored only in accord with that
 written license.
  
 The following legend is applicable only to US Government
 contracts under FAR:
  
                    RESTRICTED RIGHTS LEGEND
  
 Use, reproduction and disclosure by the US Government is
 subject to restrictions as set forth in subparagraphs (a)
 and (c) of the Commercial Computer Software - Restricted
 Rights clause in FAR 52.227-19.
  
 Gaussian, Inc.
 340 Quinnipiac St., Bldg. 40, Wallingford CT 06492
  
  
 ---------------------------------------------------------------
 Warning -- This program may not be used in any manner that
 competes with the business of Gaussian, Inc. or will provide
 assistance to any competitor of Gaussian, Inc.  The licensee
 of this program is prohibited from giving any competitor of
 Gaussian, Inc. access to this program.  By using this program,
 the user acknowledges that Gaussian, Inc. is engaged in the
 business of creating and licensing software in the field of
 computational chemistry and represents and warrants to the
 licensee that it is not a competitor of Gaussian, Inc. and that
 it will not use this program in any manner prohibited above.
 ---------------------------------------------------------------
  

 Cite this work as:
 Gaussian 09, Revision D.01,
 M. J. Frisch, G. W. Trucks, H. B. Schlegel, G. E. Scuseria, 
 M. A. Robb, J. R. Cheeseman, G. Scalmani, V. Barone, B. Mennucci, 
 G. A. Petersson, H. Nakatsuji, M. Caricato, X. Li, H. P. Hratchian, 
 A. F. Izmaylov, J. Bloino, G. Zheng, J. L. Sonnenberg, M. Hada, 
 M. Ehara, K. Toyota, R. Fukuda, J. Hasegawa, M. Ishida, T. Nakajima, 
 Y. Honda, O. Kitao, H. Nakai, T. Vreven, J. A. Montgomery, Jr., 
 J. E. Peralta, F. Ogliaro, M. Bearpark, J. J. Heyd, E. Brothers, 
 K. N. Kudin, V. N. Staroverov, T. Keith, R. Kobayashi, J. Normand, 
 K. Raghavachari, A. Rendell, J. C. Burant, S. S. Iyengar, J. Tomasi, 
 M. Cossi, N. Rega, J. M. Millam, M. Klene, J. E. Knox, J. B. Cross, 
 V. Bakken, C. Adamo, J. Jaramillo, R. Gomperts, R. E. Stratmann, 
 O. Yazyev, A. J. Austin, R. Cammi, C. Pomelli, J. W. Ochterski, 
 R. L. Martin, K. Morokuma, V. G. Zakrzewski, G. A. Voth, 
 P. Salvador, J. J. Dannenberg, S. Dapprich, A. D. Daniels, 
 O. Farkas, J. B. Foresman, J. V. Ortiz, J. Cioslowski, 
 and D. J. Fox, Gaussian, Inc., Wallingford CT, 2013.
 
 ******************************************
 Gaussian 09:  ES64L-G09RevD.01 24-Apr-2013
                14-Mar-2021 
 ******************************************
 %mem=100GB
 %chk=thiophene-half-NiO_anion_1.chk
 %nprocshare=40
 Will use up to   40 processors via shared memory.
 ----------------------------------------------------------------------
 #p td=(nstates=20) b3lyp/6-31+g(d,p) geom=connectivity scf=maxcyc=1000
 ----------------------------------------------------------------------
 1/38=1,57=2/1;
 2/12=2,17=6,18=5,40=1/2;
 3/5=1,6=6,7=111,11=9,16=1,25=1,30=1,74=-5/1,2,8,3;
 4//1;
 5/5=2,7=1000,38=5/2;
 8/6=1,10=2,108=20/1;
 9/41=20,42=1,70=2/14;
 6/7=2,8=2,9=2,10=2/1;
 99/5=1,9=1/99;
 Leave Link    1 at Sun Mar 14 02:29:31 2021, MaxMem= 13421772800 cpu:         3.4
 (Enter /local/apl/lx/g09d01/g09/l101.exe)
 -----
 title
 -----
 Symbolic Z-matrix:
 Charge = -1 Multiplicity = 1
 C                    -1.99731  -2.50532  -1.14001 
 C                     2.22681   1.60849  -0.26312 
 C                     4.14093   0.54171   0.26474 
 C                     3.05383  -0.39281   0.1401 
 C                     2.16644  -2.64831  -0.22994 
 C                     0.32892  -3.32717  -1.20541 
 C                    -0.05592   2.48185  -0.25716 
 C                    -1.00806   3.54741  -0.0393 
 C                    -2.83253  -0.75766  -0.10019 
 C                    -3.89413  -1.67728  -0.26635 
 C                    -1.99507   1.53483   0.18432 
 H                    -4.92119  -1.51044   0.02541 
 H                    -0.78598   4.60419  -0.08597 
 H                     5.16134   0.2845    0.51241 
 N                     0.90684  -2.2353   -0.62579 
 N                    -1.65904  -1.29153  -0.59638 
 N                     1.8824    0.28379  -0.17579 
 N                    -0.67663   1.26205  -0.14927 
 C                     3.64144   1.7744   -0.02963 
 H                     4.17186   2.71612  -0.04776 
 C                     2.341    -4.0359   -0.52225 
 H                     3.2287   -4.61547  -0.30884 
 C                    -3.39906  -2.7817   -0.94833 
 C                    -2.19199   2.95978   0.28215 
 H                    -3.12461   3.44617   0.53188 
 C                    -1.02288  -3.40741  -1.72644 
 C                    -2.99044   0.58287   0.307 
 C                     3.17809  -1.77221   0.19662 
 C                     1.32097   2.66729  -0.40383 
 C                     4.48679  -2.36339   0.61212 
 C                     5.56218  -2.5011   -0.27283 
 C                     4.69086  -2.82755   1.91677 
 C                     6.7784   -3.06235   0.11289 
 C                     5.89624  -3.39392   2.3275 
 C                     6.94496  -3.51091   1.41986 
 C                     1.85867   4.05175  -0.54911 
 C                     2.24346   4.55785  -1.79759 
 C                     2.02251   4.91425   0.54268 
 C                     2.7581    5.84314  -1.95932 
 C                     2.53131   6.20481   0.40904 
 C                     2.90119   6.67057  -0.84941 
 C                    -4.34366   1.01298   0.7754 
 C                    -5.29605   1.55984  -0.09209 
 C                    -4.72959   0.87042   2.11317 
 C                    -6.56168   1.95171   0.34048 
 C                    -5.9895    1.25183   2.57114 
 C                    -6.90959   1.79472   1.67898 
 Ni                    0.11583  -0.49059  -0.39917 
 C                    -4.2045   -3.95592  -1.2762 
 S                    -5.59959  -4.31045  -0.24959 
 C                    -5.19354  -5.83833  -2.27503 
 F                     3.70957  -2.72917   2.82811 
 F                     6.05786  -3.82313   3.59191 
 F                     8.11286  -4.05262   1.80386 
 F                     7.79159  -3.17575  -0.76506 
 F                     5.4466   -2.08879  -1.54617 
 F                     2.1187    3.79937  -2.89898 
 F                     3.11282   6.29429  -3.17607 
 F                     3.39402   7.91241  -0.9917 
 F                     2.67478   7.0025    1.48352 
 F                     1.69283   4.50589   1.78007 
 F                    -5.0065    1.72713  -1.39326 
 F                    -7.44953   2.47879  -0.52186 
 F                    -8.12618   2.16934   2.1084 
 F                    -6.32348   1.10436   3.86568 
 F                    -3.87309   0.35559   3.01044 
 O                    -1.32771  -4.29248  -2.55091 
 C                    -4.1411   -4.87542  -2.30255 
 C                    -6.06337  -5.66267  -1.23098 
 H                    -5.29573  -6.63165  -3.00813 
 H                    -6.93589  -6.24843  -0.97442 
 H                    -3.34493  -4.84786  -3.03219 
 C                     1.19658  -4.44952  -1.16607 
 H                     0.94947  -5.42239  -1.56497 
 
 NAtoms=     74 NQM=       74 NQMF=       0 NMMI=      0 NMMIF=      0
                NMic=       0 NMicF=      0.
                    Isotopes and Nuclear Properties:
 (Nuclear quadrupole moments (NQMom) in fm**2, nuclear magnetic moments (NMagM)
  in nuclear magnetons)

  Atom         1           2           3           4           5           6           7           8           9          10
 IAtWgt=          12          12          12          12          12          12          12          12          12          12
 AtmWgt=  12.0000000  12.0000000  12.0000000  12.0000000  12.0000000  12.0000000  12.0000000  12.0000000  12.0000000  12.0000000
 NucSpn=           0           0           0           0           0           0           0           0           0           0
 AtZEff=   0.0000000   0.0000000   0.0000000   0.0000000   0.0000000   0.0000000   0.0000000   0.0000000   0.0000000   0.0000000
 NQMom=    0.0000000   0.0000000   0.0000000   0.0000000   0.0000000   0.0000000   0.0000000   0.0000000   0.0000000   0.0000000
 NMagM=    0.0000000   0.0000000   0.0000000   0.0000000   0.0000000   0.0000000   0.0000000   0.0000000   0.0000000   0.0000000
 AtZNuc=   6.0000000   6.0000000   6.0000000   6.0000000   6.0000000   6.0000000   6.0000000   6.0000000   6.0000000   6.0000000

  Atom        11          12          13          14          15          16          17          18          19          20
 IAtWgt=          12           1           1           1          14          14          14          14          12           1
 AtmWgt=  12.0000000   1.0078250   1.0078250   1.0078250  14.0030740  14.0030740  14.0030740  14.0030740  12.0000000   1.0078250
 NucSpn=           0           1           1           1           2           2           2           2           0           1
 AtZEff=   0.0000000   0.0000000   0.0000000   0.0000000   0.0000000   0.0000000   0.0000000   0.0000000   0.0000000   0.0000000
 NQMom=    0.0000000   0.0000000   0.0000000   0.0000000   2.0440000   2.0440000   2.0440000   2.0440000   0.0000000   0.0000000
 NMagM=    0.0000000   2.7928460   2.7928460   2.7928460   0.4037610   0.4037610   0.4037610   0.4037610   0.0000000   2.7928460
 AtZNuc=   6.0000000   1.0000000   1.0000000   1.0000000   7.0000000   7.0000000   7.0000000   7.0000000   6.0000000   1.0000000

  Atom        21          22          23          24          25          26          27          28          29          30
 IAtWgt=          12           1          12          12           1          12          12          12          12          12
 AtmWgt=  12.0000000   1.0078250  12.0000000  12.0000000   1.0078250  12.0000000  12.0000000  12.0000000  12.0000000  12.0000000
 NucSpn=           0           1           0           0           1           0           0           0           0           0
 AtZEff=   0.0000000   0.0000000   0.0000000   0.0000000   0.0000000   0.0000000   0.0000000   0.0000000   0.0000000   0.0000000
 NQMom=    0.0000000   0.0000000   0.0000000   0.0000000   0.0000000   0.0000000   0.0000000   0.0000000   0.0000000   0.0000000
 NMagM=    0.0000000   2.7928460   0.0000000   0.0000000   2.7928460   0.0000000   0.0000000   0.0000000   0.0000000   0.0000000
 AtZNuc=   6.0000000   1.0000000   6.0000000   6.0000000   1.0000000   6.0000000   6.0000000   6.0000000   6.0000000   6.0000000

  Atom        31          32          33          34          35          36          37          38          39          40
 IAtWgt=          12          12          12          12          12          12          12          12          12          12
 AtmWgt=  12.0000000  12.0000000  12.0000000  12.0000000  12.0000000  12.0000000  12.0000000  12.0000000  12.0000000  12.0000000
 NucSpn=           0           0           0           0           0           0           0           0           0           0
 AtZEff=   0.0000000   0.0000000   0.0000000   0.0000000   0.0000000   0.0000000   0.0000000   0.0000000   0.0000000   0.0000000
 NQMom=    0.0000000   0.0000000   0.0000000   0.0000000   0.0000000   0.0000000   0.0000000   0.0000000   0.0000000   0.0000000
 NMagM=    0.0000000   0.0000000   0.0000000   0.0000000   0.0000000   0.0000000   0.0000000   0.0000000   0.0000000   0.0000000
 AtZNuc=   6.0000000   6.0000000   6.0000000   6.0000000   6.0000000   6.0000000   6.0000000   6.0000000   6.0000000   6.0000000

  Atom        41          42          43          44          45          46          47          48          49          50
 IAtWgt=          12          12          12          12          12          12          12          58          12          32
 AtmWgt=  12.0000000  12.0000000  12.0000000  12.0000000  12.0000000  12.0000000  12.0000000  57.9353471  12.0000000  31.9720718
 NucSpn=           0           0           0           0           0           0           0           0           0           0
 AtZEff=   0.0000000   0.0000000   0.0000000   0.0000000   0.0000000   0.0000000   0.0000000   0.0000000   0.0000000   0.0000000
 NQMom=    0.0000000   0.0000000   0.0000000   0.0000000   0.0000000   0.0000000   0.0000000   0.0000000   0.0000000   0.0000000
 NMagM=    0.0000000   0.0000000   0.0000000   0.0000000   0.0000000   0.0000000   0.0000000   0.0000000   0.0000000   0.0000000
 AtZNuc=   6.0000000   6.0000000   6.0000000   6.0000000   6.0000000   6.0000000   6.0000000  28.0000000   6.0000000  16.0000000

  Atom        51          52          53          54          55          56          57          58          59          60
 IAtWgt=          12          19          19          19          19          19          19          19          19          19
 AtmWgt=  12.0000000  18.9984033  18.9984033  18.9984033  18.9984033  18.9984033  18.9984033  18.9984033  18.9984033  18.9984033
 NucSpn=           0           1           1           1           1           1           1           1           1           1
 AtZEff=   0.0000000   0.0000000   0.0000000   0.0000000   0.0000000   0.0000000   0.0000000   0.0000000   0.0000000   0.0000000
 NQMom=    0.0000000   0.0000000   0.0000000   0.0000000   0.0000000   0.0000000   0.0000000   0.0000000   0.0000000   0.0000000
 NMagM=    0.0000000   2.6288670   2.6288670   2.6288670   2.6288670   2.6288670   2.6288670   2.6288670   2.6288670   2.6288670
 AtZNuc=   6.0000000   9.0000000   9.0000000   9.0000000   9.0000000   9.0000000   9.0000000   9.0000000   9.0000000   9.0000000

  Atom        61          62          63          64          65          66          67          68          69          70
 IAtWgt=          19          19          19          19          19          19          16          12          12           1
 AtmWgt=  18.9984033  18.9984033  18.9984033  18.9984033  18.9984033  18.9984033  15.9949146  12.0000000  12.0000000   1.0078250
 NucSpn=           1           1           1           1           1           1           0           0           0           1
 AtZEff=   0.0000000   0.0000000   0.0000000   0.0000000   0.0000000   0.0000000   0.0000000   0.0000000   0.0000000   0.0000000
 NQMom=    0.0000000   0.0000000   0.0000000   0.0000000   0.0000000   0.0000000   0.0000000   0.0000000   0.0000000   0.0000000
 NMagM=    2.6288670   2.6288670   2.6288670   2.6288670   2.6288670   2.6288670   0.0000000   0.0000000   0.0000000   2.7928460
 AtZNuc=   9.0000000   9.0000000   9.0000000   9.0000000   9.0000000   9.0000000   8.0000000   6.0000000   6.0000000   1.0000000

  Atom        71          72          73          74
 IAtWgt=           1           1          12           1
 AtmWgt=   1.0078250   1.0078250  12.0000000   1.0078250
 NucSpn=           1           1           0           1
 AtZEff=   0.0000000   0.0000000   0.0000000   0.0000000
 NQMom=    0.0000000   0.0000000   0.0000000   0.0000000
 NMagM=    2.7928460   2.7928460   0.0000000   2.7928460
 AtZNuc=   1.0000000   1.0000000   6.0000000   1.0000000
 Leave Link  101 at Sun Mar 14 02:29:31 2021, MaxMem= 13421772800 cpu:        10.4
 (Enter /local/apl/lx/g09d01/g09/l202.exe)
 Stoichiometry    C42H10F15N4NiOS(1-)
 Framework group  C1[X(C42H10F15N4NiOS)]
 Deg. of freedom   216
 Full point group                 C1      NOp   1
 Largest Abelian subgroup         C1      NOp   1
 Largest concise Abelian subgroup C1      NOp   1
                         Standard orientation:                         
 ---------------------------------------------------------------------
 Center     Atomic      Atomic             Coordinates (Angstroms)
 Number     Number       Type             X           Y           Z
 ---------------------------------------------------------------------
      1          6           0       -1.997312   -2.505319   -1.140010
      2          6           0        2.226808    1.608492   -0.263118
      3          6           0        4.140929    0.541714    0.264739
      4          6           0        3.053834   -0.392808    0.140097
      5          6           0        2.166438   -2.648307   -0.229939
      6          6           0        0.328920   -3.327169   -1.205407
      7          6           0       -0.055921    2.481847   -0.257163
      8          6           0       -1.008056    3.547411   -0.039296
      9          6           0       -2.832530   -0.757659   -0.100190
     10          6           0       -3.894132   -1.677277   -0.266349
     11          6           0       -1.995071    1.534833    0.184321
     12          1           0       -4.921192   -1.510437    0.025408
     13          1           0       -0.785977    4.604194   -0.085974
     14          1           0        5.161337    0.284499    0.512406
     15          7           0        0.906836   -2.235303   -0.625790
     16          7           0       -1.659042   -1.291531   -0.596379
     17          7           0        1.882398    0.283787   -0.175789
     18          7           0       -0.676631    1.262048   -0.149271
     19          6           0        3.641442    1.774398   -0.029632
     20          1           0        4.171864    2.716124   -0.047760
     21          6           0        2.341000   -4.035903   -0.522250
     22          1           0        3.228701   -4.615472   -0.308842
     23          6           0       -3.399058   -2.781704   -0.948329
     24          6           0       -2.191993    2.959784    0.282152
     25          1           0       -3.124608    3.446173    0.531877
     26          6           0       -1.022884   -3.407407   -1.726439
     27          6           0       -2.990440    0.582873    0.306997
     28          6           0        3.178089   -1.772208    0.196622
     29          6           0        1.320974    2.667291   -0.403828
     30          6           0        4.486795   -2.363393    0.612118
     31          6           0        5.562184   -2.501095   -0.272834
     32          6           0        4.690861   -2.827546    1.916769
     33          6           0        6.778400   -3.062352    0.112888
     34          6           0        5.896237   -3.393923    2.327497
     35          6           0        6.944955   -3.510913    1.419860
     36          6           0        1.858665    4.051750   -0.549107
     37          6           0        2.243457    4.557845   -1.797586
     38          6           0        2.022506    4.914248    0.542681
     39          6           0        2.758104    5.843138   -1.959318
     40          6           0        2.531308    6.204805    0.409035
     41          6           0        2.901190    6.670569   -0.849411
     42          6           0       -4.343655    1.012982    0.775400
     43          6           0       -5.296053    1.559835   -0.092088
     44          6           0       -4.729594    0.870417    2.113166
     45          6           0       -6.561684    1.951714    0.340475
     46          6           0       -5.989501    1.251834    2.571140
     47          6           0       -6.909593    1.794720    1.678981
     48         28           0        0.115833   -0.490587   -0.399174
     49          6           0       -4.204500   -3.955920   -1.276203
     50         16           0       -5.599586   -4.310453   -0.249588
     51          6           0       -5.193540   -5.838334   -2.275034
     52          9           0        3.709571   -2.729173    2.828110
     53          9           0        6.057859   -3.823127    3.591908
     54          9           0        8.112859   -4.052619    1.803858
     55          9           0        7.791590   -3.175751   -0.765064
     56          9           0        5.446598   -2.088789   -1.546170
     57          9           0        2.118697    3.799369   -2.898977
     58          9           0        3.112817    6.294287   -3.176075
     59          9           0        3.394020    7.912413   -0.991700
     60          9           0        2.674778    7.002503    1.483522
     61          9           0        1.692831    4.505885    1.780073
     62          9           0       -5.006501    1.727133   -1.393260
     63          9           0       -7.449532    2.478790   -0.521861
     64          9           0       -8.126180    2.169337    2.108400
     65          9           0       -6.323479    1.104356    3.865681
     66          9           0       -3.873086    0.355588    3.010439
     67          8           0       -1.327711   -4.292482   -2.550909
     68          6           0       -4.141101   -4.875417   -2.302555
     69          6           0       -6.063366   -5.662665   -1.230980
     70          1           0       -5.295731   -6.631650   -3.008126
     71          1           0       -6.935885   -6.248429   -0.974415
     72          1           0       -3.344925   -4.847863   -3.032191
     73          6           0        1.196583   -4.449521   -1.166072
     74          1           0        0.949465   -5.422394   -1.564968
 ---------------------------------------------------------------------
 Rotational constants (GHZ):      0.0355715      0.0251925      0.0171576
 Leave Link  202 at Sun Mar 14 02:29:31 2021, MaxMem= 13421772800 cpu:         2.3
 (Enter /local/apl/lx/g09d01/g09/l301.exe)
 Standard basis: 6-31+G(d,p) (6D, 7F)
 Ernie: Thresh=  0.10000D-02 Tol=  0.10000D-05 Strict=F.
 There are  1303 symmetry adapted cartesian basis functions of A   symmetry.
 There are  1300 symmetry adapted basis functions of A   symmetry.
  1300 basis functions,  2227 primitive gaussians,  1303 cartesian basis functions
   239 alpha electrons      239 beta electrons
       nuclear repulsion energy     10670.4144479614 Hartrees.
 IExCor=  402 DFT=T Ex+Corr=B3LYP ExCW=0 ScaHFX=  0.200000
 ScaDFX=  0.800000  0.720000  1.000000  0.810000 ScalE2=  1.000000  1.000000
 IRadAn=      0 IRanWt=     -1 IRanGd=            0 ICorTp=0 IEmpDi=  4
 NAtoms=   74 NActive=   74 NUniq=   74 SFac= 1.00D+00 NAtFMM=   60 NAOKFM=T Big=T
 Integral buffers will be    131072 words long.
 Regular integral format.
 Two-electron integral symmetry is turned on.
 Leave Link  301 at Sun Mar 14 02:29:31 2021, MaxMem= 13421772800 cpu:         3.4
 (Enter /local/apl/lx/g09d01/g09/l302.exe)
 NPDir=0 NMtPBC=     1 NCelOv=     1 NCel=       1 NClECP=     1 NCelD=      1
         NCelK=      1 NCelE2=     1 NClLst=     1 CellRange=     0.0.
 One-electron integrals computed using PRISM.
 NBasis=  1300 RedAO= T EigKep=  1.11D-06  NBF=  1300
 NBsUse=  1281 1.00D-06 EigRej=  9.73D-07 NBFU=  1281
 Precomputing XC quadrature grid using
 IXCGrd= 4 IRadAn=           0 IRanWt=          -1 IRanGd=           0 AccXCQ= 0.00D+00.
 Generated NRdTot=       0 NPtTot=           0 NUsed=           0 NTot=          32
 NSgBfM=  1226  1226  1226  1226  1226 MxSgAt=    74 MxSgA2=    74.
 Leave Link  302 at Sun Mar 14 02:29:35 2021, MaxMem= 13421772800 cpu:       154.5
 (Enter /local/apl/lx/g09d01/g09/l308.exe)
 Leave Link  308 at Sun Mar 14 02:29:36 2021, MaxMem= 13421772800 cpu:        25.0
 (Enter /local/apl/lx/g09d01/g09/l303.exe)
 DipDrv:  MaxL=1.
 Leave Link  303 at Sun Mar 14 02:29:37 2021, MaxMem= 13421772800 cpu:        11.6
 (Enter /local/apl/lx/g09d01/g09/l401.exe)
 ExpMin= 1.39D-02 ExpMax= 7.14D+04 ExpMxC= 1.07D+04 IAcc=3 IRadAn=         5 AccDes= 0.00D+00
 Harris functional with IExCor=  402 and IRadAn=       5 diagonalized for initial guess.
 HarFok:  IExCor=  402 AccDes= 0.00D+00 IRadAn=         5 IDoV= 1 UseB2=F ITyADJ=14
 ICtDFT=  3500011 ScaDFX=  1.000000  1.000000  1.000000  1.000000
 FoFCou: FMM=F IPFlag=           0 FMFlag=      100000 FMFlg1=        2001
         NFxFlg=           0 DoJE=T BraDBF=F KetDBF=T FulRan=T
         wScrn=  0.000000 ICntrl=     500 IOpCl=  0 I1Cent=   200000004 NGrid=           0
         NMat0=    1 NMatS0=      1 NMatT0=    0 NMatD0=    1 NMtDS0=    0 NMtDT0=    0
 Petite list used in FoFCou.
 Harris En= -5304.72944113977    
 JPrj=0 DoOrth=F DoCkMO=F.
 Leave Link  401 at Sun Mar 14 02:29:44 2021, MaxMem= 13421772800 cpu:       304.9
 (Enter /local/apl/lx/g09d01/g09/l502.exe)
 Closed shell SCF:
 Using DIIS extrapolation, IDIIS=  1040.
 Integral symmetry usage will be decided dynamically.
 IVT=     6161697 IEndB=     6161697 NGot= 13421772800 MDV= 13418312216
 LenX= 13418312216 LenY= 13416613104
 Requested convergence on RMS density matrix=1.00D-08 within1000 cycles.
 Requested convergence on MAX density matrix=1.00D-06.
 Requested convergence on             energy=1.00D-06.
 No special actions if energy rises.
 Fock matrices will be formed incrementally for  20 cycles.

 Cycle   1  Pass 1  IDiag  1:
 FoFJK:  IHMeth= 1 ICntrl=       0 DoSepK=F KAlg= 0 I1Cent=   0 FoldK=F
 IRaf= 740000000 NMat=   1 IRICut=       1 DoRegI=T DoRafI=F ISym2E= 0.
 FoFCou: FMM=T IPFlag=           0 FMFlag=      100000 FMFlg1=        2001
         NFxFlg=           0 DoJE=F BraDBF=F KetDBF=F FulRan=T
         wScrn=  0.000000 ICntrl=       0 IOpCl=  0 I1Cent=           0 NGrid=           0
         NMat0=    1 NMatS0=      1 NMatT0=    0 NMatD0=    1 NMtDS0=    0 NMtDT0=    0
 Symmetry not used in FoFCou.
 FMM levels:  10  Number of levels for PrismC:   9
 E= -5301.32879032854    
 DIIS: error= 7.00D-02 at cycle   1 NSaved=   1.
 NSaved= 1 IEnMin= 1 EnMin= -5301.32879032854     IErMin= 1 ErrMin= 7.00D-02
 ErrMax= 7.00D-02  0.00D+00 EMaxC= 1.00D-01 BMatC= 6.69D+00 BMatP= 6.69D+00
 IDIUse=3 WtCom= 3.00D-01 WtEn= 7.00D-01
 Coeff-Com:  0.100D+01
 Coeff-En:   0.100D+01
 Coeff:      0.100D+01
 Gap=     0.746 Goal=   None    Shift=    0.000
 GapD=    0.746 DampG=2.000 DampE=0.250 DampFc=0.5000 IDamp=-1.
 Damping current iteration by 5.00D-01
 RMSDP=1.59D+00 MaxDP=6.49D+02              OVMax= 8.86D-01

 Cycle   2  Pass 1  IDiag  1:
 RMSU=  7.60D-01    CP:  3.00D+00
 E= -5299.43208372492     Delta-E=        1.896706603620 Rises=F Damp=T
 DIIS: error= 3.22D-02 at cycle   2 NSaved=   2.
 NSaved= 2 IEnMin= 1 EnMin= -5301.32879032854     IErMin= 2 ErrMin= 3.22D-02
 ErrMax= 3.22D-02  0.00D+00 EMaxC= 1.00D-01 BMatC= 3.52D+00 BMatP= 6.69D+00
 IDIUse=3 WtCom= 6.78D-01 WtEn= 3.22D-01
 Coeff-Com:  0.402D+00 0.598D+00
 Coeff-En:   0.604D+00 0.396D+00
 Coeff:      0.467D+00 0.533D+00
 Gap=    -0.055 Goal=   None    Shift=    0.000
 RMSDP=7.81D-01 MaxDP=3.18D+02 DE= 1.90D+00 OVMax= 8.43D-01

 Cycle   3  Pass 1  IDiag  1:
 RMSU=  9.04D-02    CP:  1.28D+00  1.60D-02
 E= -5297.87667058261     Delta-E=        1.555413142309 Rises=F Damp=F
 DIIS: error= 3.19D-02 at cycle   3 NSaved=   3.
 NSaved= 3 IEnMin= 1 EnMin= -5301.32879032854     IErMin= 3 ErrMin= 3.19D-02
 ErrMax= 3.19D-02  0.00D+00 EMaxC= 1.00D-01 BMatC= 6.34D+00 BMatP= 3.52D+00
 IDIUse=2 WtCom= 0.00D+00 WtEn= 1.00D+00
 EnCoef did     2 forward-backward iterations
 Coeff-En:   0.498D+00 0.291D+00 0.211D+00
 Coeff:      0.498D+00 0.291D+00 0.211D+00
 Gap=     0.086 Goal=   None    Shift=    0.000
 RMSDP=8.54D-02 MaxDP=1.34D+01 DE= 1.56D+00 OVMax= 6.97D-01

 Cycle   4  Pass 1  IDiag  1:
 RMSU=  2.89D-02    CP:  9.35D-01  1.61D-02  1.55D-01
 E= -5299.93905087301     Delta-E=       -2.062380290399 Rises=F Damp=F
 DIIS: error= 4.21D-02 at cycle   4 NSaved=   4.
 NSaved= 4 IEnMin= 1 EnMin= -5301.32879032854     IErMin= 3 ErrMin= 3.19D-02
 ErrMax= 4.21D-02  0.00D+00 EMaxC= 1.00D-01 BMatC= 6.03D+00 BMatP= 3.52D+00
 IDIUse=2 WtCom= 0.00D+00 WtEn= 1.00D+00
 EnCoef did     2 forward-backward iterations
 Coeff-En:   0.457D+00 0.000D+00 0.162D+00 0.381D+00
 Coeff:      0.457D+00 0.000D+00 0.162D+00 0.381D+00
 Gap=     0.068 Goal=   None    Shift=    0.000
 RMSDP=3.44D-02 MaxDP=3.10D+00 DE=-2.06D+00 OVMax= 6.09D-01

 Cycle   5  Pass 1  IDiag  1:
 RMSU=  2.10D-02    CP:  8.89D-01  1.47D-03  1.25D-01  1.54D-01
 E= -5304.56110065394     Delta-E=       -4.622049780928 Rises=F Damp=F
 DIIS: error= 6.67D-03 at cycle   5 NSaved=   5.
 NSaved= 5 IEnMin= 5 EnMin= -5304.56110065394     IErMin= 5 ErrMin= 6.67D-03
 ErrMax= 6.67D-03  0.00D+00 EMaxC= 1.00D-01 BMatC= 3.13D-01 BMatP= 3.52D+00
 IDIUse=3 WtCom= 9.33D-01 WtEn= 6.67D-02
 EnCoef did     5 forward-backward iterations
 Coeff-Com:  0.135D+00 0.134D-01 0.247D-01 0.134D+00 0.692D+00
 Coeff-En:   0.703D-01 0.000D+00 0.000D+00 0.782D-01 0.851D+00
 Coeff:      0.131D+00 0.125D-01 0.231D-01 0.131D+00 0.703D+00
 Gap=     0.179 Goal=   None    Shift=    0.000
 RMSDP=2.49D-02 MaxDP=5.78D+00 DE=-4.62D+00 OVMax= 4.35D-01

 Cycle   6  Pass 1  IDiag  1:
 RMSU=  1.54D-02    CP:  8.47D-01 -8.53D-03  4.14D-02  2.37D-01  2.39D-01
 E= -5304.19537947120     Delta-E=        0.365721182738 Rises=F Damp=F
 DIIS: error= 1.29D-02 at cycle   6 NSaved=   6.
 NSaved= 6 IEnMin= 5 EnMin= -5304.56110065394     IErMin= 5 ErrMin= 6.67D-03
 ErrMax= 1.29D-02  0.00D+00 EMaxC= 1.00D-01 BMatC= 6.68D-01 BMatP= 3.13D-01
 IDIUse=2 WtCom= 0.00D+00 WtEn= 1.00D+00
 Coeff-En:   0.000D+00 0.000D+00 0.000D+00 0.000D+00 0.626D+00 0.374D+00
 Coeff:      0.000D+00 0.000D+00 0.000D+00 0.000D+00 0.626D+00 0.374D+00
 Gap=     0.114 Goal=   None    Shift=    0.000
 RMSDP=1.47D-02 MaxDP=1.78D+00 DE= 3.66D-01 OVMax= 3.23D-01

 Cycle   7  Pass 1  IDiag  1:
 RMSU=  7.67D-03    CP:  8.07D-01 -2.51D-03  7.61D-02  2.65D-01  4.17D-01
                    CP:  3.42D-01
 E= -5304.77858784593     Delta-E=       -0.583208374732 Rises=F Damp=F
 DIIS: error= 7.63D-03 at cycle   7 NSaved=   7.
 NSaved= 7 IEnMin= 7 EnMin= -5304.77858784593     IErMin= 5 ErrMin= 6.67D-03
 ErrMax= 7.63D-03  0.00D+00 EMaxC= 1.00D-01 BMatC= 2.30D-01 BMatP= 3.13D-01
 IDIUse=3 WtCom= 9.33D-01 WtEn= 6.67D-02
 EnCoef did     2 forward-backward iterations
 Coeff-Com:  0.150D-01 0.787D-02-0.332D-02-0.171D-01 0.395D+00 0.243D+00
 Coeff-Com:  0.360D+00
 Coeff-En:   0.000D+00 0.000D+00 0.000D+00 0.000D+00 0.310D+00 0.147D+00
 Coeff-En:   0.543D+00
 Coeff:      0.140D-01 0.735D-02-0.310D-02-0.160D-01 0.389D+00 0.237D+00
 Coeff:      0.372D+00
 Gap=     0.159 Goal=   None    Shift=    0.000
 RMSDP=6.90D-03 MaxDP=1.18D+00 DE=-5.83D-01 OVMax= 1.01D-01

 Cycle   8  Pass 1  IDiag  1:
 RMSU=  3.27D-03    CP:  8.25D-01 -4.34D-03  7.79D-02  1.84D-01  5.68D-01
                    CP:  4.01D-01  4.68D-01
 E= -5304.91674771216     Delta-E=       -0.138159866230 Rises=F Damp=F
 DIIS: error= 2.23D-03 at cycle   8 NSaved=   8.
 NSaved= 8 IEnMin= 8 EnMin= -5304.91674771216     IErMin= 8 ErrMin= 2.23D-03
 ErrMax= 2.23D-03  0.00D+00 EMaxC= 1.00D-01 BMatC= 9.76D-03 BMatP= 2.30D-01
 IDIUse=3 WtCom= 9.78D-01 WtEn= 2.23D-02
 Coeff-Com: -0.139D-02 0.438D-02-0.394D-02-0.510D-02 0.121D+00 0.660D-01
 Coeff-Com:  0.186D+00 0.632D+00
 Coeff-En:   0.000D+00 0.000D+00 0.000D+00 0.000D+00 0.000D+00 0.000D+00
 Coeff-En:   0.406D-01 0.959D+00
 Coeff:     -0.136D-02 0.429D-02-0.385D-02-0.499D-02 0.119D+00 0.646D-01
 Coeff:      0.183D+00 0.640D+00
 Gap=     0.080 Goal=   None    Shift=    0.000
 RMSDP=2.46D-03 MaxDP=2.76D-01 DE=-1.38D-01 OVMax= 4.47D-02

 Cycle   9  Pass 1  IDiag  1:
 RMSU=  2.21D-03    CP:  8.30D-01 -4.34D-03  7.40D-02  2.00D-01  5.70D-01
                    CP:  3.72D-01  5.11D-01  8.05D-01
 E= -5304.92111383265     Delta-E=       -0.004366120491 Rises=F Damp=F
 DIIS: error= 7.66D-04 at cycle   9 NSaved=   9.
 NSaved= 9 IEnMin= 9 EnMin= -5304.92111383265     IErMin= 9 ErrMin= 7.66D-04
 ErrMax= 7.66D-04  0.00D+00 EMaxC= 1.00D-01 BMatC= 3.22D-03 BMatP= 9.76D-03
 IDIUse=3 WtCom= 9.92D-01 WtEn= 7.66D-03
 Coeff-Com: -0.377D-02 0.192D-02-0.295D-02 0.113D-02 0.222D-01 0.696D-02
 Coeff-Com:  0.587D-01 0.470D+00 0.446D+00
 Coeff-En:   0.000D+00 0.000D+00 0.000D+00 0.000D+00 0.000D+00 0.000D+00
 Coeff-En:   0.000D+00 0.337D+00 0.663D+00
 Coeff:     -0.374D-02 0.191D-02-0.293D-02 0.112D-02 0.220D-01 0.691D-02
 Coeff:      0.582D-01 0.469D+00 0.447D+00
 Gap=     0.081 Goal=   None    Shift=    0.000
 RMSDP=1.42D-03 MaxDP=2.21D-01 DE=-4.37D-03 OVMax= 2.97D-02

 Cycle  10  Pass 1  IDiag  1:
 RMSU=  5.94D-04    CP:  8.25D-01 -4.19D-03  7.60D-02  2.00D-01  5.66D-01
                    CP:  3.82D-01  5.07D-01  8.33D-01  4.50D-01
 E= -5304.92435158585     Delta-E=       -0.003237753202 Rises=F Damp=F
 DIIS: error= 2.18D-04 at cycle  10 NSaved=  10.
 NSaved=10 IEnMin=10 EnMin= -5304.92435158585     IErMin=10 ErrMin= 2.18D-04
 ErrMax= 2.18D-04  0.00D+00 EMaxC= 1.00D-01 BMatC= 3.41D-04 BMatP= 3.22D-03
 IDIUse=3 WtCom= 9.98D-01 WtEn= 2.18D-03
 Coeff-Com: -0.256D-02 0.101D-03-0.174D-02 0.149D-02 0.564D-02-0.118D-02
 Coeff-Com:  0.310D-01 0.273D+00 0.305D+00 0.389D+00
 Coeff-En:   0.000D+00 0.000D+00 0.000D+00 0.000D+00 0.000D+00 0.000D+00
 Coeff-En:   0.000D+00 0.000D+00 0.501D-01 0.950D+00
 Coeff:     -0.256D-02 0.101D-03-0.174D-02 0.148D-02 0.563D-02-0.118D-02
 Coeff:      0.309D-01 0.272D+00 0.305D+00 0.390D+00
 Gap=     0.081 Goal=   None    Shift=    0.000
 RMSDP=4.43D-04 MaxDP=6.10D-02 DE=-3.24D-03 OVMax= 1.08D-02

 Cycle  11  Pass 1  IDiag  1:
 RMSU=  2.72D-04    CP:  8.26D-01 -4.29D-03  7.72D-02  1.99D-01  5.64D-01
                    CP:  3.83D-01  5.21D-01  8.55D-01  5.29D-01  6.05D-01
 E= -5304.92467731102     Delta-E=       -0.000325725165 Rises=F Damp=F
 DIIS: error= 1.23D-04 at cycle  11 NSaved=  11.
 NSaved=11 IEnMin=11 EnMin= -5304.92467731102     IErMin=11 ErrMin= 1.23D-04
 ErrMax= 1.23D-04  0.00D+00 EMaxC= 1.00D-01 BMatC= 5.40D-05 BMatP= 3.41D-04
 IDIUse=3 WtCom= 9.99D-01 WtEn= 1.23D-03
 Coeff-Com: -0.869D-03 0.126D-03-0.461D-04 0.214D-03-0.165D-02-0.205D-02
 Coeff-Com:  0.131D-01 0.760D-01 0.101D+00 0.238D+00 0.577D+00
 Coeff-En:   0.000D+00 0.000D+00 0.000D+00 0.000D+00 0.000D+00 0.000D+00
 Coeff-En:   0.000D+00 0.000D+00 0.000D+00 0.812D-01 0.919D+00
 Coeff:     -0.868D-03 0.126D-03-0.460D-04 0.213D-03-0.165D-02-0.205D-02
 Coeff:      0.131D-01 0.759D-01 0.100D+00 0.238D+00 0.577D+00
 Gap=     0.081 Goal=   None    Shift=    0.000
 RMSDP=2.08D-04 MaxDP=2.60D-02 DE=-3.26D-04 OVMax= 5.36D-03

 Cycle  12  Pass 1  IDiag  1:
 RMSU=  1.18D-04    CP:  8.25D-01 -4.28D-03  7.63D-02  2.00D-01  5.63D-01
                    CP:  3.82D-01  5.25D-01  8.54D-01  5.25D-01  6.69D-01
                    CP:  5.27D-01
 E= -5304.92471441650     Delta-E=       -0.000037105478 Rises=F Damp=F
 DIIS: error= 5.80D-05 at cycle  12 NSaved=  12.
 NSaved=12 IEnMin=12 EnMin= -5304.92471441650     IErMin=12 ErrMin= 5.80D-05
 ErrMax= 5.80D-05  0.00D+00 EMaxC= 1.00D-01 BMatC= 1.09D-05 BMatP= 5.40D-05
 IDIUse=1 WtCom= 1.00D+00 WtEn= 0.00D+00
 Coeff-Com: -0.260D-03 0.488D-04 0.205D-03 0.156D-05-0.195D-02-0.145D-02
 Coeff-Com:  0.483D-02 0.164D-01 0.312D-01 0.103D+00 0.405D+00 0.443D+00
 Coeff:     -0.260D-03 0.488D-04 0.205D-03 0.156D-05-0.195D-02-0.145D-02
 Coeff:      0.483D-02 0.164D-01 0.312D-01 0.103D+00 0.405D+00 0.443D+00
 Gap=     0.081 Goal=   None    Shift=    0.000
 RMSDP=9.35D-05 MaxDP=1.31D-02 DE=-3.71D-05 OVMax= 2.63D-03

 Cycle  13  Pass 1  IDiag  1:
 RMSU=  5.32D-05    CP:  8.26D-01 -4.29D-03  7.67D-02  2.00D-01  5.63D-01
                    CP:  3.82D-01  5.26D-01  8.52D-01  5.23D-01  6.60D-01
                    CP:  6.84D-01  5.61D-01
 E= -5304.92472530511     Delta-E=       -0.000010888612 Rises=F Damp=F
 DIIS: error= 3.62D-05 at cycle  13 NSaved=  13.
 NSaved=13 IEnMin=13 EnMin= -5304.92472530511     IErMin=13 ErrMin= 3.62D-05
 ErrMax= 3.62D-05  0.00D+00 EMaxC= 1.00D-01 BMatC= 2.33D-06 BMatP= 1.09D-05
 IDIUse=1 WtCom= 1.00D+00 WtEn= 0.00D+00
 Coeff-Com: -0.678D-04-0.630D-05 0.145D-03 0.468D-06-0.106D-02-0.794D-03
 Coeff-Com:  0.105D-02 0.293D-03 0.921D-02 0.315D-01 0.187D+00 0.325D+00
 Coeff-Com:  0.447D+00
 Coeff:     -0.678D-04-0.630D-05 0.145D-03 0.468D-06-0.106D-02-0.794D-03
 Coeff:      0.105D-02 0.293D-03 0.921D-02 0.315D-01 0.187D+00 0.325D+00
 Coeff:      0.447D+00
 Gap=     0.081 Goal=   None    Shift=    0.000
 RMSDP=4.38D-05 MaxDP=6.87D-03 DE=-1.09D-05 OVMax= 9.27D-04

 Cycle  14  Pass 1  IDiag  1:
 RMSU=  2.43D-05    CP:  8.26D-01 -4.29D-03  7.68D-02  2.00D-01  5.63D-01
                    CP:  3.82D-01  5.26D-01  8.55D-01  5.27D-01  6.61D-01
                    CP:  6.90D-01  7.42D-01  5.94D-01
 E= -5304.92472781881     Delta-E=       -0.000002513696 Rises=F Damp=F
 DIIS: error= 8.25D-06 at cycle  14 NSaved=  14.
 NSaved=14 IEnMin=14 EnMin= -5304.92472781881     IErMin=14 ErrMin= 8.25D-06
 ErrMax= 8.25D-06  0.00D+00 EMaxC= 1.00D-01 BMatC= 3.08D-07 BMatP= 2.33D-06
 IDIUse=1 WtCom= 1.00D+00 WtEn= 0.00D+00
 Coeff-Com: -0.112D-04-0.216D-05 0.611D-04 0.114D-04-0.194D-03-0.159D-03
 Coeff-Com: -0.531D-03-0.310D-02 0.363D-03-0.633D-02 0.202D-01 0.100D+00
 Coeff-Com:  0.282D+00 0.607D+00
 Coeff:     -0.112D-04-0.216D-05 0.611D-04 0.114D-04-0.194D-03-0.159D-03
 Coeff:     -0.531D-03-0.310D-02 0.363D-03-0.633D-02 0.202D-01 0.100D+00
 Coeff:      0.282D+00 0.607D+00
 Gap=     0.081 Goal=   None    Shift=    0.000
 RMSDP=1.75D-05 MaxDP=2.25D-03 DE=-2.51D-06 OVMax= 3.02D-04

 Cycle  15  Pass 1  IDiag  1:
 RMSU=  1.03D-05    CP:  8.26D-01 -4.29D-03  7.67D-02  2.00D-01  5.63D-01
                    CP:  3.82D-01  5.25D-01  8.55D-01  5.30D-01  6.64D-01
                    CP:  6.82D-01  7.28D-01  7.04D-01  7.82D-01
 E= -5304.92472815589     Delta-E=       -0.000000337084 Rises=F Damp=F
 DIIS: error= 3.37D-06 at cycle  15 NSaved=  15.
 NSaved=15 IEnMin=15 EnMin= -5304.92472815589     IErMin=15 ErrMin= 3.37D-06
 ErrMax= 3.37D-06  0.00D+00 EMaxC= 1.00D-01 BMatC= 5.72D-08 BMatP= 3.08D-07
 IDIUse=1 WtCom= 1.00D+00 WtEn= 0.00D+00
 Coeff-Com: -0.552D-06 0.197D-05 0.236D-04 0.754D-05 0.123D-05 0.175D-04
 Coeff-Com: -0.503D-03-0.268D-02-0.162D-02-0.900D-02-0.117D-01 0.151D-01
 Coeff-Com:  0.979D-01 0.362D+00 0.551D+00
 Coeff:     -0.552D-06 0.197D-05 0.236D-04 0.754D-05 0.123D-05 0.175D-04
 Coeff:     -0.503D-03-0.268D-02-0.162D-02-0.900D-02-0.117D-01 0.151D-01
 Coeff:      0.979D-01 0.362D+00 0.551D+00
 Gap=     0.081 Goal=   None    Shift=    0.000
 RMSDP=6.84D-06 MaxDP=8.83D-04 DE=-3.37D-07 OVMax= 1.40D-04

 Cycle  16  Pass 1  IDiag  1:
 RMSU=  3.11D-06    CP:  8.26D-01 -4.30D-03  7.68D-02  2.00D-01  5.63D-01
                    CP:  3.82D-01  5.25D-01  8.55D-01  5.31D-01  6.65D-01
                    CP:  6.84D-01  7.45D-01  7.14D-01  9.04D-01  8.54D-01
 E= -5304.92472821361     Delta-E=       -0.000000057724 Rises=F Damp=F
 DIIS: error= 1.09D-06 at cycle  16 NSaved=  16.
 NSaved=16 IEnMin=16 EnMin= -5304.92472821361     IErMin=16 ErrMin= 1.09D-06
 ErrMax= 1.09D-06  0.00D+00 EMaxC= 1.00D-01 BMatC= 1.20D-08 BMatP= 5.72D-08
 IDIUse=1 WtCom= 1.00D+00 WtEn= 0.00D+00
 Coeff-Com:  0.456D-05 0.229D-05 0.196D-05-0.204D-05 0.407D-04 0.411D-04
 Coeff-Com: -0.205D-03-0.132D-02-0.127D-02-0.515D-02-0.115D-01-0.906D-02
 Coeff-Com:  0.942D-02 0.123D+00 0.358D+00 0.538D+00
 Coeff:      0.456D-05 0.229D-05 0.196D-05-0.204D-05 0.407D-04 0.411D-04
 Coeff:     -0.205D-03-0.132D-02-0.127D-02-0.515D-02-0.115D-01-0.906D-02
 Coeff:      0.942D-02 0.123D+00 0.358D+00 0.538D+00
 Gap=     0.081 Goal=   None    Shift=    0.000
 RMSDP=2.49D-06 MaxDP=3.95D-04 DE=-5.77D-08 OVMax= 3.92D-05

 Cycle  17  Pass 1  IDiag  1:
 RMSU=  1.35D-06    CP:  8.26D-01 -4.29D-03  7.68D-02  2.00D-01  5.63D-01
                    CP:  3.82D-01  5.26D-01  8.55D-01  5.31D-01  6.65D-01
                    CP:  6.86D-01  7.51D-01  7.18D-01  8.99D-01  9.49D-01
                    CP:  7.17D-01
 E= -5304.92472822758     Delta-E=       -0.000000013970 Rises=F Damp=F
 DIIS: error= 6.62D-07 at cycle  17 NSaved=  17.
 NSaved=17 IEnMin=17 EnMin= -5304.92472822758     IErMin=17 ErrMin= 6.62D-07
 ErrMax= 6.62D-07  0.00D+00 EMaxC= 1.00D-01 BMatC= 2.34D-09 BMatP= 1.20D-08
 IDIUse=1 WtCom= 1.00D+00 WtEn= 0.00D+00
 Coeff-Com:  0.385D-05-0.389D-06-0.396D-05-0.121D-05 0.167D-04 0.153D-04
 Coeff-Com: -0.568D-04-0.372D-03-0.447D-03-0.159D-02-0.380D-02-0.587D-02
 Coeff-Com: -0.581D-02 0.263D-01 0.133D+00 0.301D+00 0.558D+00
 Coeff:      0.385D-05-0.389D-06-0.396D-05-0.121D-05 0.167D-04 0.153D-04
 Coeff:     -0.568D-04-0.372D-03-0.447D-03-0.159D-02-0.380D-02-0.587D-02
 Coeff:     -0.581D-02 0.263D-01 0.133D+00 0.301D+00 0.558D+00
 Gap=     0.081 Goal=   None    Shift=    0.000
 RMSDP=1.12D-06 MaxDP=1.59D-04 DE=-1.40D-08 OVMax= 2.03D-05

 Cycle  18  Pass 1  IDiag  1:
 RMSU=  7.09D-07    CP:  8.26D-01 -4.30D-03  7.68D-02  2.00D-01  5.63D-01
                    CP:  3.82D-01  5.26D-01  8.55D-01  5.31D-01  6.65D-01
                    CP:  6.87D-01  7.51D-01  7.18D-01  9.11D-01  9.25D-01
                    CP:  8.72D-01  8.51D-01
 E= -5304.92472822976     Delta-E=       -0.000000002176 Rises=F Damp=F
 DIIS: error= 3.19D-07 at cycle  18 NSaved=  18.
 NSaved=18 IEnMin=18 EnMin= -5304.92472822976     IErMin=18 ErrMin= 3.19D-07
 ErrMax= 3.19D-07  0.00D+00 EMaxC= 1.00D-01 BMatC= 5.34D-10 BMatP= 2.34D-09
 IDIUse=1 WtCom= 1.00D+00 WtEn= 0.00D+00
 Coeff-Com:  0.145D-05-0.573D-06-0.272D-05-0.338D-07-0.650D-05-0.149D-06
 Coeff-Com:  0.100D-04 0.168D-03 0.848D-04 0.448D-03 0.114D-02-0.625D-03
 Coeff-Com: -0.521D-02-0.176D-01-0.271D-01-0.443D-02 0.316D+00 0.738D+00
 Coeff:      0.145D-05-0.573D-06-0.272D-05-0.338D-07-0.650D-05-0.149D-06
 Coeff:      0.100D-04 0.168D-03 0.848D-04 0.448D-03 0.114D-02-0.625D-03
 Coeff:     -0.521D-02-0.176D-01-0.271D-01-0.443D-02 0.316D+00 0.738D+00
 Gap=     0.081 Goal=   None    Shift=    0.000
 RMSDP=5.70D-07 MaxDP=5.94D-05 DE=-2.18D-09 OVMax= 1.48D-05

 Cycle  19  Pass 1  IDiag  1:
 RMSU=  4.22D-07    CP:  8.26D-01 -4.30D-03  7.68D-02  2.00D-01  5.63D-01
                    CP:  3.82D-01  5.26D-01  8.55D-01  5.31D-01  6.65D-01
                    CP:  6.87D-01  7.52D-01  7.18D-01  9.14D-01  9.38D-01
                    CP:  8.69D-01  1.03D+00  1.06D+00
 E= -5304.92472822971     Delta-E=        0.000000000051 Rises=F Damp=F
 DIIS: error= 1.80D-07 at cycle  19 NSaved=  19.
 NSaved=19 IEnMin=18 EnMin= -5304.92472822976     IErMin=19 ErrMin= 1.80D-07
 ErrMax= 1.80D-07  0.00D+00 EMaxC= 1.00D-01 BMatC= 1.16D-10 BMatP= 5.34D-10
 IDIUse=1 WtCom= 1.00D+00 WtEn= 0.00D+00
 Coeff-Com: -0.497D-06 0.321D-08-0.191D-06 0.601D-07-0.632D-05 0.421D-06
 Coeff-Com:  0.214D-04 0.196D-03 0.127D-03 0.632D-03 0.121D-02 0.111D-03
 Coeff-Com: -0.363D-02-0.207D-01-0.493D-01-0.821D-01 0.250D-01 0.413D+00
 Coeff-Com:  0.715D+00
 Coeff:     -0.497D-06 0.321D-08-0.191D-06 0.601D-07-0.632D-05 0.421D-06
 Coeff:      0.214D-04 0.196D-03 0.127D-03 0.632D-03 0.121D-02 0.111D-03
 Coeff:     -0.363D-02-0.207D-01-0.493D-01-0.821D-01 0.250D-01 0.413D+00
 Coeff:      0.715D+00
 Gap=     0.081 Goal=   None    Shift=    0.000
 RMSDP=3.40D-07 MaxDP=3.94D-05 DE= 5.09D-11 OVMax= 9.56D-06

 Cycle  20  Pass 1  IDiag  1:
 RMSU=  1.75D-07    CP:  8.26D-01 -4.30D-03  7.68D-02  2.00D-01  5.63D-01
                    CP:  3.82D-01  5.26D-01  8.55D-01  5.31D-01  6.65D-01
                    CP:  6.87D-01  7.53D-01  7.19D-01  9.15D-01  9.46D-01
                    CP:  9.13D-01  1.10D+00  1.27D+00  8.81D-01
 E= -5304.92472822994     Delta-E=       -0.000000000231 Rises=F Damp=F
 DIIS: error= 9.52D-08 at cycle  20 NSaved=  20.
 NSaved=20 IEnMin=20 EnMin= -5304.92472822994     IErMin=20 ErrMin= 9.52D-08
 ErrMax= 9.52D-08  0.00D+00 EMaxC= 1.00D-01 BMatC= 2.94D-11 BMatP= 1.16D-10
 IDIUse=1 WtCom= 1.00D+00 WtEn= 0.00D+00
 Coeff-Com: -0.529D-06 0.566D-07 0.302D-06-0.203D-07-0.127D-05 0.335D-06
 Coeff-Com:  0.132D-04 0.975D-04 0.691D-04 0.303D-03 0.416D-03 0.643D-04
 Coeff-Com: -0.136D-02-0.935D-02-0.235D-01-0.442D-01-0.236D-01 0.147D+00
 Coeff-Com:  0.428D+00 0.525D+00
 Coeff:     -0.529D-06 0.566D-07 0.302D-06-0.203D-07-0.127D-05 0.335D-06
 Coeff:      0.132D-04 0.975D-04 0.691D-04 0.303D-03 0.416D-03 0.643D-04
 Coeff:     -0.136D-02-0.935D-02-0.235D-01-0.442D-01-0.236D-01 0.147D+00
 Coeff:      0.428D+00 0.525D+00
 Gap=     0.081 Goal=   None    Shift=    0.000
 RMSDP=1.44D-07 MaxDP=2.04D-05 DE=-2.31D-10 OVMax= 2.02D-06

 Cycle  21  Pass 1  IDiag  1:
 Restarting incremental Fock formation.
 E= -5304.92472823195     Delta-E=       -0.000000002012 Rises=F Damp=F
 DIIS: error= 8.58D-08 at cycle  21 NSaved=  20.
 NSaved=20 IEnMin=20 EnMin= -5304.92472823195     IErMin=20 ErrMin= 8.58D-08
 ErrMax= 8.58D-08  0.00D+00 EMaxC= 1.00D-01 BMatC= 1.24D-11 BMatP= 2.94D-11
 IDIUse=1 WtCom= 1.00D+00 WtEn= 0.00D+00
 Coeff-Com: -0.413D-06-0.197D-07 0.228D-07 0.384D-06 0.816D-07 0.101D-04
 Coeff-Com:  0.708D-04 0.526D-04 0.199D-03 0.169D-03-0.782D-04-0.988D-03
 Coeff-Com: -0.598D-02-0.142D-01-0.254D-01-0.176D-01 0.773D-01 0.258D+00
 Coeff-Com:  0.390D+00 0.339D+00
 Coeff:     -0.413D-06-0.197D-07 0.228D-07 0.384D-06 0.816D-07 0.101D-04
 Coeff:      0.708D-04 0.526D-04 0.199D-03 0.169D-03-0.782D-04-0.988D-03
 Coeff:     -0.598D-02-0.142D-01-0.254D-01-0.176D-01 0.773D-01 0.258D+00
 Coeff:      0.390D+00 0.339D+00
 Gap=     0.081 Goal=   None    Shift=    0.000
 RMSDP=1.82D-06 MaxDP=1.78D-04 DE=-2.01D-09 OVMax= 7.69D-07

 Cycle  22  Pass 1  IDiag  1:
 RMSU=  1.82D-06    CP:  1.00D+00
 E= -5304.92472823180     Delta-E=        0.000000000151 Rises=F Damp=F
 DIIS: error= 5.66D-08 at cycle  22 NSaved=  20.
 NSaved=20 IEnMin=19 EnMin= -5304.92472823195     IErMin=20 ErrMin= 5.66D-08
 ErrMax= 5.66D-08  0.00D+00 EMaxC= 1.00D-01 BMatC= 4.68D-12 BMatP= 1.24D-11
 IDIUse=1 WtCom= 1.00D+00 WtEn= 0.00D+00
 Coeff-Com: -0.126D-06 0.562D-07-0.556D-06-0.295D-06 0.377D-05 0.196D-04
 Coeff-Com:  0.159D-04 0.918D-04 0.170D-03 0.159D-03-0.782D-04-0.213D-02
 Coeff-Com: -0.611D-02-0.112D-01-0.930D-02 0.311D-01 0.107D+00 0.117D+00
 Coeff-Com: -0.681D+00 0.145D+01
 Coeff:     -0.126D-06 0.562D-07-0.556D-06-0.295D-06 0.377D-05 0.196D-04
 Coeff:      0.159D-04 0.918D-04 0.170D-03 0.159D-03-0.782D-04-0.213D-02
 Coeff:     -0.611D-02-0.112D-01-0.930D-02 0.311D-01 0.107D+00 0.117D+00
 Coeff:     -0.681D+00 0.145D+01
 Gap=     0.081 Goal=   None    Shift=    0.000
 RMSDP=2.19D-06 MaxDP=2.00D-04 DE= 1.51D-10 OVMax= 7.60D-07

 Cycle  23  Pass 1  IDiag  1:
 RMSU=  3.56D-07    CP:  1.00D+00  2.19D+00
 E= -5304.92472823322     Delta-E=       -0.000000001422 Rises=F Damp=F
 DIIS: error= 1.97D-08 at cycle  23 NSaved=  20.
 NSaved=20 IEnMin=20 EnMin= -5304.92472823322     IErMin=20 ErrMin= 1.97D-08
 ErrMax= 1.97D-08  0.00D+00 EMaxC= 1.00D-01 BMatC= 2.83D-12 BMatP= 4.68D-12
 IDIUse=1 WtCom= 1.00D+00 WtEn= 0.00D+00
 Coeff-Com:  0.230D-07-0.286D-06-0.299D-07-0.384D-06-0.126D-04-0.102D-04
 Coeff-Com: -0.935D-05 0.445D-04 0.140D-03 0.339D-03 0.550D-03 0.181D-03
 Coeff-Com:  0.300D-03-0.275D-02-0.646D-02-0.295D-02-0.233D-01-0.101D+01
 Coeff-Com:  0.133D+01 0.712D+00
 Coeff:      0.230D-07-0.286D-06-0.299D-07-0.384D-06-0.126D-04-0.102D-04
 Coeff:     -0.935D-05 0.445D-04 0.140D-03 0.339D-03 0.550D-03 0.181D-03
 Coeff:      0.300D-03-0.275D-02-0.646D-02-0.295D-02-0.233D-01-0.101D+01
 Coeff:      0.133D+01 0.712D+00
 Gap=     0.081 Goal=   None    Shift=    0.000
 RMSDP=1.30D-06 MaxDP=1.13D-04 DE=-1.42D-09 OVMax= 7.41D-07

 Cycle  24  Pass 1  IDiag  1:
 RMSU=  1.06D-07    CP:  1.00D+00  2.88D+00  1.88D+00
 E= -5304.92472823137     Delta-E=        0.000000001855 Rises=F Damp=F
 DIIS: error= 4.88D-09 at cycle  24 NSaved=  20.
 NSaved=20 IEnMin=19 EnMin= -5304.92472823322     IErMin=20 ErrMin= 4.88D-09
 ErrMax= 4.88D-09  0.00D+00 EMaxC= 1.00D-01 BMatC= 1.96D-13 BMatP= 2.83D-12
 IDIUse=1 WtCom= 1.00D+00 WtEn= 0.00D+00
 Coeff-Com: -0.482D-07-0.135D-07-0.692D-07-0.557D-05-0.449D-05-0.547D-05
 Coeff-Com:  0.945D-05 0.464D-04 0.139D-03 0.261D-03 0.200D-03 0.520D-03
 Coeff-Com: -0.176D-02-0.487D-02-0.149D-02-0.296D-02-0.506D+00 0.655D+00
 Coeff-Com:  0.406D+00 0.456D+00
 Coeff:     -0.482D-07-0.135D-07-0.692D-07-0.557D-05-0.449D-05-0.547D-05
 Coeff:      0.945D-05 0.464D-04 0.139D-03 0.261D-03 0.200D-03 0.520D-03
 Coeff:     -0.176D-02-0.487D-02-0.149D-02-0.296D-02-0.506D+00 0.655D+00
 Coeff:      0.406D+00 0.456D+00
 Gap=     0.081 Goal=   None    Shift=    0.000
 RMSDP=1.33D-07 MaxDP=1.41D-05 DE= 1.86D-09 OVMax= 1.02D-07

 Cycle  25  Pass 1  IDiag  1:
 RMSU=  4.77D-08    CP:  1.00D+00  2.81D+00  1.86D+00  1.31D+00
 E= -5304.92472823187     Delta-E=       -0.000000000498 Rises=F Damp=F
 DIIS: error= 7.08D-09 at cycle  25 NSaved=  20.
 NSaved=20 IEnMin=18 EnMin= -5304.92472823322     IErMin=19 ErrMin= 4.88D-09
 ErrMax= 7.08D-09  0.00D+00 EMaxC= 1.00D-01 BMatC= 2.89D-14 BMatP= 1.96D-13
 IDIUse=1 WtCom= 1.00D+00 WtEn= 0.00D+00
 Coeff-Com:  0.282D-07-0.371D-07-0.269D-05-0.221D-05-0.377D-05-0.812D-06
 Coeff-Com:  0.165D-04 0.653D-04 0.142D-03 0.151D-03 0.393D-03-0.103D-02
 Coeff-Com: -0.294D-02-0.845D-03-0.531D-03-0.243D+00 0.320D+00 0.204D+00
 Coeff-Com:  0.282D+00 0.441D+00
 Coeff:      0.282D-07-0.371D-07-0.269D-05-0.221D-05-0.377D-05-0.812D-06
 Coeff:      0.165D-04 0.653D-04 0.142D-03 0.151D-03 0.393D-03-0.103D-02
 Coeff:     -0.294D-02-0.845D-03-0.531D-03-0.243D+00 0.320D+00 0.204D+00
 Coeff:      0.282D+00 0.441D+00
 Gap=     0.081 Goal=   None    Shift=    0.000
 RMSDP=6.38D-08 MaxDP=5.33D-06 DE=-4.98D-10 OVMax= 4.80D-08

 Cycle  26  Pass 1  IDiag  1:
 RMSU=  3.84D-08    CP:  1.00D+00  2.79D+00  1.85D+00  1.45D+00  1.76D+00
 E= -5304.92472823079     Delta-E=        0.000000001073 Rises=F Damp=F
 DIIS: error= 1.71D-08 at cycle  26 NSaved=  20.
 NSaved=20 IEnMin=17 EnMin= -5304.92472823322     IErMin=18 ErrMin= 4.88D-09
 ErrMax= 1.71D-08  0.00D+00 EMaxC= 1.00D-01 BMatC= 6.21D-14 BMatP= 2.89D-14
 IDIUse=1 WtCom= 1.00D+00 WtEn= 0.00D+00
 Coeff-Com: -0.634D-07-0.289D-05-0.247D-05-0.382D-05-0.414D-06 0.164D-04
 Coeff-Com:  0.645D-04 0.131D-03 0.120D-03 0.351D-03-0.105D-02-0.265D-02
 Coeff-Com: -0.250D-03-0.114D-02-0.268D+00 0.352D+00 0.223D+00 0.318D+00
 Coeff-Com:  0.605D+00-0.226D+00
 Coeff:     -0.634D-07-0.289D-05-0.247D-05-0.382D-05-0.414D-06 0.164D-04
 Coeff:      0.645D-04 0.131D-03 0.120D-03 0.351D-03-0.105D-02-0.265D-02
 Coeff:     -0.250D-03-0.114D-02-0.268D+00 0.352D+00 0.223D+00 0.318D+00
 Coeff:      0.605D+00-0.226D+00
 Gap=     0.081 Goal=   None    Shift=    0.000
 RMSDP=3.51D-08 MaxDP=2.33D-06 DE= 1.07D-09 OVMax= 1.75D-08

 Cycle  27  Pass 1  IDiag  1:
 RMSU=  1.88D-08    CP:  1.00D+00  2.79D+00  1.83D+00  1.41D+00  1.42D+00
                    CP:  3.79D-01
 E= -5304.92472823134     Delta-E=       -0.000000000544 Rises=F Damp=F
 DIIS: error= 5.89D-09 at cycle  27 NSaved=  20.
 NSaved=20 IEnMin=16 EnMin= -5304.92472823322     IErMin=17 ErrMin= 4.88D-09
 ErrMax= 5.89D-09  0.00D+00 EMaxC= 1.00D-01 BMatC= 1.99D-14 BMatP= 2.89D-14
 IDIUse=1 WtCom= 1.00D+00 WtEn= 0.00D+00
 Coeff-Com: -0.168D-05-0.142D-05-0.157D-05 0.179D-05 0.115D-04 0.387D-04
 Coeff-Com:  0.667D-04 0.451D-04 0.223D-03-0.708D-03-0.170D-02-0.579D-04
 Coeff-Com: -0.140D-02-0.172D+00 0.229D+00 0.146D+00 0.217D+00 0.498D+00
 Coeff-Com: -0.278D+00 0.363D+00
 Coeff:     -0.168D-05-0.142D-05-0.157D-05 0.179D-05 0.115D-04 0.387D-04
 Coeff:      0.667D-04 0.451D-04 0.223D-03-0.708D-03-0.170D-02-0.579D-04
 Coeff:     -0.140D-02-0.172D+00 0.229D+00 0.146D+00 0.217D+00 0.498D+00
 Coeff:     -0.278D+00 0.363D+00
 Gap=     0.081 Goal=   None    Shift=    0.000
 RMSDP=4.94D-08 MaxDP=4.72D-06 DE=-5.44D-10 OVMax= 1.62D-08

 Cycle  28  Pass 1  IDiag  1:
 RMSU=  3.99D-08    CP:  1.00D+00  2.79D+00  1.84D+00  1.42D+00  1.66D+00
                    CP:  9.51D-01  1.72D+00
 E= -5304.92472823161     Delta-E=       -0.000000000276 Rises=F Damp=F
 DIIS: error= 1.12D-08 at cycle  28 NSaved=  20.
 NSaved=20 IEnMin=15 EnMin= -5304.92472823322     IErMin=16 ErrMin= 4.88D-09
 ErrMax= 1.12D-08  0.00D+00 EMaxC= 1.00D-01 BMatC= 3.24D-14 BMatP= 1.99D-14
 IDIUse=1 WtCom= 1.00D+00 WtEn= 0.00D+00
 Large coefficients: NSaved= 20 BigCof=    0.00 CofMax=   10.00 Det=-3.99D-15
 Inversion failed.  Reducing to 19 matrices.
 Large coefficients: NSaved= 19 BigCof=    0.00 CofMax=   10.00 Det=-4.06D-15
 Inversion failed.  Reducing to 18 matrices.
 Large coefficients: NSaved= 18 BigCof=    0.00 CofMax=   10.00 Det=-4.07D-15
 Inversion failed.  Reducing to 17 matrices.
 Large coefficients: NSaved= 17 BigCof=    0.00 CofMax=   10.00 Det=-4.10D-15
 Inversion failed.  Reducing to 16 matrices.
 Large coefficients: NSaved= 16 BigCof=    0.00 CofMax=   10.00 Det=-4.12D-15
 Inversion failed.  Reducing to 15 matrices.
 Coeff-Com: -0.226D-04-0.881D-04 0.797D-05-0.104D-03 0.247D-03 0.886D-03
 Coeff-Com: -0.102D-02-0.515D-01 0.731D-01 0.555D-01 0.153D+00 0.598D+00
 Coeff-Com: -0.350D+00 0.673D+00-0.151D+00
 Coeff:     -0.226D-04-0.881D-04 0.797D-05-0.104D-03 0.247D-03 0.886D-03
 Coeff:     -0.102D-02-0.515D-01 0.731D-01 0.555D-01 0.153D+00 0.598D+00
 Coeff:     -0.350D+00 0.673D+00-0.151D+00
 Gap=     0.081 Goal=   None    Shift=    0.000
 RMSDP=2.87D-08 MaxDP=2.51D-06 DE=-2.76D-10 OVMax= 1.24D-08

 Cycle  29  Pass 1  IDiag  1:
 RMSU=  1.04D-08    CP:  1.00D+00  2.78D+00  1.83D+00  1.47D+00  1.89D+00
                    CP:  1.28D+00  1.89D+00  1.11D+00
 E= -5304.92472823216     Delta-E=       -0.000000000544 Rises=F Damp=F
 DIIS: error= 1.08D-08 at cycle  29 NSaved=  16.
 NSaved=16 IEnMin=10 EnMin= -5304.92472823322     IErMin=11 ErrMin= 4.88D-09
 ErrMax= 1.08D-08  0.00D+00 EMaxC= 1.00D-01 BMatC= 4.29D-14 BMatP= 1.99D-14
 IDIUse=1 WtCom= 1.00D+00 WtEn= 0.00D+00
 Large coefficients: NSaved= 16 BigCof=    0.00 CofMax=   10.00 Det=-2.35D-15
 Inversion failed.  Reducing to 15 matrices.
 Coeff-Com: -0.696D-04 0.190D-04-0.114D-03 0.111D-03 0.445D-03-0.200D-02
 Coeff-Com: -0.614D-01 0.864D-01 0.618D-01 0.160D+00 0.638D+00-0.456D+00
 Coeff-Com:  0.838D+00-0.575D+00 0.309D+00
 Coeff:     -0.696D-04 0.190D-04-0.114D-03 0.111D-03 0.445D-03-0.200D-02
 Coeff:     -0.614D-01 0.864D-01 0.618D-01 0.160D+00 0.638D+00-0.456D+00
 Coeff:      0.838D+00-0.575D+00 0.309D+00
 Gap=     0.081 Goal=   None    Shift=    0.000
 RMSDP=3.62D-08 MaxDP=3.12D-06 DE=-5.44D-10 OVMax= 1.84D-08

 Cycle  30  Pass 1  IDiag  1:
 RMSU=  3.14D-08    CP:  1.00D+00  2.78D+00  1.81D+00  1.46D+00  1.71D+00
                    CP:  1.26D+00  2.42D+00  9.58D-01  1.69D+00
 E= -5304.92472823032     Delta-E=        0.000000001834 Rises=F Damp=F
 DIIS: error= 1.11D-08 at cycle  30 NSaved=  16.
 NSaved=16 IEnMin= 9 EnMin= -5304.92472823322     IErMin=10 ErrMin= 4.88D-09
 ErrMax= 1.11D-08  0.00D+00 EMaxC= 1.00D-01 BMatC= 5.31D-14 BMatP= 1.99D-14
 IDIUse=1 WtCom= 1.00D+00 WtEn= 0.00D+00
 Large coefficients: NSaved= 16 BigCof=    0.00 CofMax=   10.00 Det=-3.20D-15
 Inversion failed.  Reducing to 15 matrices.
 Coeff-Com:  0.113D-03-0.340D-04-0.130D-04-0.250D-04-0.246D-02-0.498D-01
 Coeff-Com:  0.723D-01 0.518D-01 0.147D+00 0.638D+00-0.493D+00 0.955D+00
 Coeff-Com: -0.602D+00 0.469D+00-0.186D+00
 Coeff:      0.113D-03-0.340D-04-0.130D-04-0.250D-04-0.246D-02-0.498D-01
 Coeff:      0.723D-01 0.518D-01 0.147D+00 0.638D+00-0.493D+00 0.955D+00
 Coeff:     -0.602D+00 0.469D+00-0.186D+00
 Gap=     0.081 Goal=   None    Shift=    0.000
 RMSDP=2.24D-08 MaxDP=2.21D-06 DE= 1.83D-09 OVMax= 1.32D-08

 Cycle  31  Pass 1  IDiag  1:
 RMSU=  1.24D-08    CP:  1.00D+00  2.78D+00  1.83D+00  1.46D+00  1.79D+00
                    CP:  1.19D+00  2.24D+00  8.40D-01  1.24D+00  5.66D-01
 E= -5304.92472823132     Delta-E=       -0.000000001000 Rises=F Damp=F
 DIIS: error= 1.23D-08 at cycle  31 NSaved=  16.
 NSaved=16 IEnMin= 8 EnMin= -5304.92472823322     IErMin= 9 ErrMin= 4.88D-09
 ErrMax= 1.23D-08  0.00D+00 EMaxC= 1.00D-01 BMatC= 5.65D-14 BMatP= 1.99D-14
 IDIUse=1 WtCom= 1.00D+00 WtEn= 0.00D+00
 Large coefficients: NSaved= 16 BigCof=    0.00 CofMax=   10.00 Det=-1.86D-15
 Inversion failed.  Reducing to 15 matrices.
 Coeff-Com: -0.137D-03 0.964D-04 0.254D-03-0.239D-02-0.538D-01 0.775D-01
 Coeff-Com:  0.542D-01 0.149D+00 0.642D+00-0.502D+00 0.963D+00-0.675D+00
 Coeff-Com:  0.538D+00-0.280D+00 0.898D-01
 Coeff:     -0.137D-03 0.964D-04 0.254D-03-0.239D-02-0.538D-01 0.775D-01
 Coeff:      0.542D-01 0.149D+00 0.642D+00-0.502D+00 0.963D+00-0.675D+00
 Coeff:      0.538D+00-0.280D+00 0.898D-01
 Gap=     0.081 Goal=   None    Shift=    0.000
 RMSDP=9.99D-09 MaxDP=1.22D-06 DE=-1.00D-09 OVMax= 9.85D-09

 Cycle  32  Pass 1  IDiag  1:
 RMSU=  7.95D-09    CP:  1.00D+00  2.78D+00  1.83D+00  1.47D+00  1.81D+00
                    CP:  1.15D+00  2.17D+00  7.25D-01  1.38D+00  5.78D-01
                    CP:  1.17D+00
 E= -5304.92472823086     Delta-E=        0.000000000458 Rises=F Damp=F
 DIIS: error= 1.27D-08 at cycle  32 NSaved=  16.
 NSaved=16 IEnMin= 7 EnMin= -5304.92472823322     IErMin= 8 ErrMin= 4.88D-09
 ErrMax= 1.27D-08  0.00D+00 EMaxC= 1.00D-01 BMatC= 5.89D-14 BMatP= 1.99D-14
 IDIUse=1 WtCom= 1.00D+00 WtEn= 0.00D+00
 Large coefficients: NSaved= 16 BigCof=    0.00 CofMax=   10.00 Det=-1.84D-15
 Inversion failed.  Reducing to 15 matrices.
 Coeff-Com:  0.155D-03 0.282D-03-0.214D-02-0.547D-01 0.783D-01 0.558D-01
 Coeff-Com:  0.152D+00 0.641D+00-0.500D+00 0.948D+00-0.657D+00 0.533D+00
 Coeff-Com: -0.281D+00 0.109D+00-0.235D-01
 Coeff:      0.155D-03 0.282D-03-0.214D-02-0.547D-01 0.783D-01 0.558D-01
 Coeff:      0.152D+00 0.641D+00-0.500D+00 0.948D+00-0.657D+00 0.533D+00
 Coeff:     -0.281D+00 0.109D+00-0.235D-01
 Gap=     0.081 Goal=   None    Shift=    0.000
 RMSDP=3.15D-09 MaxDP=2.29D-07 DE= 4.58D-10 OVMax= 4.43D-09

 SCF Done:  E(RB3LYP) =  -5304.92472823     A.U. after   32 cycles
            NFock= 32  Conv=0.32D-08     -V/T= 2.0063
 KE= 5.271948734309D+03 PE=-3.389885308945D+04 EE= 1.265156517895D+04
 Leave Link  502 at Sun Mar 14 02:46:11 2021, MaxMem= 13421772800 cpu:     39309.2
 (Enter /local/apl/lx/g09d01/g09/l801.exe)
 DoSCS=F DFT=T ScalE2(SS,OS)=  1.000000  1.000000
 ExpMin= 1.39D-02 ExpMax= 7.14D+04 ExpMxC= 1.07D+04 IAcc=3 IRadAn=         5 AccDes= 0.00D+00
 HarFok:  IExCor=  205 AccDes= 0.00D+00 IRadAn=         5 IDoV=-2 UseB2=F ITyADJ=14
 ICtDFT= 12500011 ScaDFX=  1.000000  1.000000  1.000000  1.000000
 Largest valence mixing into a core orbital is  2.37D-04
 Largest core mixing into a valence orbital is  7.73D-05
 Range of M.O.s used for correlation:    77  1281
 NBasis=  1300 NAE=   239 NBE=   239 NFC=    76 NFV=     0
 NROrb=   1205 NOA=   163 NOB=   163 NVA=  1042 NVB=  1042

 **** Warning!!: The largest alpha MO coefficient is  0.10493490D+03


 **** Warning!!: The smallest alpha delta epsilon is  0.81020220D-01

 Leave Link  801 at Sun Mar 14 02:46:13 2021, MaxMem= 13421772800 cpu:        47.9
 (Enter /local/apl/lx/g09d01/g09/l914.exe)
 RHF ground state
 MDV= 13421772800 DFT=T DoStab=F Mixed=T DoRPA=T DoScal=F NonHer=T
 Would need an additional       1081627100000 words for in-memory AO integral storage.
 Making orbital integer symmetry assigments:
 Orbital symmetries:
       Occupied  (A) (A) (A) (A) (A) (A) (A) (A) (A) (A) (A) (A)
                 (A) (A) (A) (A) (A) (A) (A) (A) (A) (A) (A) (A)
                 (A) (A) (A) (A) (A) (A) (A) (A) (A) (A) (A) (A)
                 (A) (A) (A) (A) (A) (A) (A) (A) (A) (A) (A) (A)
                 (A) (A) (A) (A) (A) (A) (A) (A) (A) (A) (A) (A)
                 (A) (A) (A) (A) (A) (A) (A) (A) (A) (A) (A) (A)
                 (A) (A) (A) (A) (A) (A) (A) (A) (A) (A) (A) (A)
                 (A) (A) (A) (A) (A) (A) (A) (A) (A) (A) (A) (A)
                 (A) (A) (A) (A) (A) (A) (A) (A) (A) (A) (A) (A)
                 (A) (A) (A) (A) (A) (A) (A) (A) (A) (A) (A) (A)
                 (A) (A) (A) (A) (A) (A) (A) (A) (A) (A) (A) (A)
                 (A) (A) (A) (A) (A) (A) (A) (A) (A) (A) (A) (A)
                 (A) (A) (A) (A) (A) (A) (A) (A) (A) (A) (A) (A)
                 (A) (A) (A) (A) (A) (A) (A) (A) (A) (A) (A) (A)
                 (A) (A) (A) (A) (A) (A) (A) (A) (A) (A) (A) (A)
                 (A) (A) (A) (A) (A) (A) (A) (A) (A) (A) (A) (A)
                 (A) (A) (A) (A) (A) (A) (A) (A) (A) (A) (A) (A)
                 (A) (A) (A) (A) (A) (A) (A) (A) (A) (A) (A) (A)
                 (A) (A) (A) (A) (A) (A) (A) (A) (A) (A) (A) (A)
                 (A) (A) (A) (A) (A) (A) (A) (A) (A) (A) (A)
       Virtual   (A) (A) (A) (A) (A) (A) (A) (A) (A) (A) (A) (A)
                 (A) (A) (A) (A) (A) (A) (A) (A) (A) (A) (A) (A)
                 (A) (A) (A) (A) (A) (A) (A) (A) (A) (A) (A) (A)
                 (A) (A) (A) (A) (A) (A) (A) (A) (A) (A) (A) (A)
                 (A) (A) (A) (A) (A) (A) (A) (A) (A) (A) (A) (A)
                 (A) (A) (A) (A) (A) (A) (A) (A) (A) (A) (A) (A)
                 (A) (A) (A) (A) (A) (A) (A) (A) (A) (A) (A) (A)
                 (A) (A) (A) (A) (A) (A) (A) (A) (A) (A) (A) (A)
                 (A) (A) (A) (A) (A) (A) (A) (A) (A) (A) (A) (A)
                 (A) (A) (A) (A) (A) (A) (A) (A) (A) (A) (A) (A)
                 (A) (A) (A) (A) (A) (A) (A) (A) (A) (A) (A) (A)
                 (A) (A) (A) (A) (A) (A) (A) (A) (A) (A) (A) (A)
                 (A) (A) (A) (A) (A) (A) (A) (A) (A) (A) (A) (A)
                 (A) (A) (A) (A) (A) (A) (A) (A) (A) (A) (A) (A)
                 (A) (A) (A) (A) (A) (A) (A) (A) (A) (A) (A) (A)
                 (A) (A) (A) (A) (A) (A) (A) (A) (A) (A) (A) (A)
                 (A) (A) (A) (A) (A) (A) (A) (A) (A) (A) (A) (A)
                 (A) (A) (A) (A) (A) (A) (A) (A) (A) (A) (A) (A)
                 (A) (A) (A) (A) (A) (A) (A) (A) (A) (A) (A) (A)
                 (A) (A) (A) (A) (A) (A) (A) (A) (A) (A) (A) (A)
                 (A) (A) (A) (A) (A) (A) (A) (A) (A) (A) (A) (A)
                 (A) (A) (A) (A) (A) (A) (A) (A) (A) (A) (A) (A)
                 (A) (A) (A) (A) (A) (A) (A) (A) (A) (A) (A) (A)
                 (A) (A) (A) (A) (A) (A) (A) (A) (A) (A) (A) (A)
                 (A) (A) (A) (A) (A) (A) (A) (A) (A) (A) (A) (A)
                 (A) (A) (A) (A) (A) (A) (A) (A) (A) (A) (A) (A)
                 (A) (A) (A) (A) (A) (A) (A) (A) (A) (A) (A) (A)
                 (A) (A) (A) (A) (A) (A) (A) (A) (A) (A) (A) (A)
                 (A) (A) (A) (A) (A) (A) (A) (A) (A) (A) (A) (A)
                 (A) (A) (A) (A) (A) (A) (A) (A) (A) (A) (A) (A)
                 (A) (A) (A) (A) (A) (A) (A) (A) (A) (A) (A) (A)
                 (A) (A) (A) (A) (A) (A) (A) (A) (A) (A) (A) (A)
                 (A) (A) (A) (A) (A) (A) (A) (A) (A) (A) (A) (A)
                 (A) (A) (A) (A) (A) (A) (A) (A) (A) (A) (A) (A)
                 (A) (A) (A) (A) (A) (A) (A) (A) (A) (A) (A) (A)
                 (A) (A) (A) (A) (A) (A) (A) (A) (A) (A) (A) (A)
                 (A) (A) (A) (A) (A) (A) (A) (A) (A) (A) (A) (A)
                 (A) (A) (A) (A) (A) (A) (A) (A) (A) (A) (A) (A)
                 (A) (A) (A) (A) (A) (A) (A) (A) (A) (A) (A) (A)
                 (A) (A) (A) (A) (A) (A) (A) (A) (A) (A) (A) (A)
                 (A) (A) (A) (A) (A) (A) (A) (A) (A) (A) (A) (A)
                 (A) (A) (A) (A) (A) (A) (A) (A) (A) (A) (A) (A)
                 (A) (A) (A) (A) (A) (A) (A) (A) (A) (A) (A) (A)
                 (A) (A) (A) (A) (A) (A) (A) (A) (A) (A) (A) (A)
                 (A) (A) (A) (A) (A) (A) (A) (A) (A) (A) (A) (A)
                 (A) (A) (A) (A) (A) (A) (A) (A) (A) (A) (A) (A)
                 (A) (A) (A) (A) (A) (A) (A) (A) (A) (A) (A) (A)
                 (A) (A) (A) (A) (A) (A) (A) (A) (A) (A) (A) (A)
                 (A) (A) (A) (A) (A) (A) (A) (A) (A) (A) (A) (A)
                 (A) (A) (A) (A) (A) (A) (A) (A) (A) (A) (A) (A)
                 (A) (A) (A) (A) (A) (A) (A) (A) (A) (A) (A) (A)
                 (A) (A) (A) (A) (A) (A) (A) (A) (A) (A) (A) (A)
                 (A) (A) (A) (A) (A) (A) (A) (A) (A) (A) (A) (A)
                 (A) (A) (A) (A) (A) (A) (A) (A) (A) (A) (A) (A)
                 (A) (A) (A) (A) (A) (A) (A) (A) (A) (A) (A) (A)
                 (A) (A) (A) (A) (A) (A) (A) (A) (A) (A) (A) (A)
                 (A) (A) (A) (A) (A) (A) (A) (A) (A) (A) (A) (A)
                 (A) (A) (A) (A) (A) (A) (A) (A) (A) (A) (A) (A)
                 (A) (A) (A) (A) (A) (A) (A) (A) (A) (A) (A) (A)
                 (A) (A) (A) (A) (A) (A) (A) (A) (A) (A) (A) (A)
                 (A) (A) (A) (A) (A) (A) (A) (A) (A) (A) (A) (A)
                 (A) (A) (A) (A) (A) (A) (A) (A) (A) (A) (A) (A)
                 (A) (A) (A) (A) (A) (A) (A) (A) (A) (A) (A) (A)
                 (A) (A) (A) (A) (A) (A) (A) (A) (A) (A) (A) (A)
                 (A) (A) (A) (A) (A) (A) (A) (A) (A) (A) (A) (A)
                 (A) (A) (A) (A) (A) (A) (A) (A) (A) (A) (A) (A)
                 (A) (A) (A) (A) (A) (A) (A) (A) (A) (A) (A) (A)
                 (A) (A) (A) (A) (A) (A) (A) (A) (A) (A) (A) (A)
                 (A) (A) (A) (A) (A) (A) (A) (A) (A) (A) (A) (A)
                 (A) (A) (A) (A) (A) (A) (A) (A) (A) (A) (A) (A)
                 (A) (A) (A) (A) (A) (A) (A) (A) (A) (A) (A) (A)
                 (A) (A) (A) (A) (A) (A) (A) (A) (A) (A) (A) (A)
                 (A) (A) (A) (A) (A) (A) (A) (A) (A) (A) (A) (A)
                 (A) (A) (A) (A) (A) (A) (A) (A) (A) (A) (A) (A)
                 (A) (A) (A) (A) (A) (A) (A) (A) (A) (A) (A) (A)
                 (A) (A) (A) (A) (A) (A) (A) (A) (A) (A) (A) (A)
                 (A) (A) (A) (A) (A) (A) (A) (A) (A) (A) (A) (A)
                 (A) (A) (A) (A) (A) (A) (A) (A) (A) (A) (A) (A)
                 (A) (A) (A) (A) (A) (A) (A) (A) (A) (A) (A) (A)
                 (A) (A) (A) (A) (A) (A) (A) (A) (A) (A) (A) (A)
                 (A) (A) (A) (A) (A) (A) (A) (A) (A) (A) (A) (A)
                 (A) (A) (A) (A) (A) (A) (A) (A) (A) (A) (A) (A)
                 (A) (A) (A) (A) (A) (A) (A) (A) (A) (A) (A) (A)
                 (A) (A) (A) (A) (A) (A) (A) (A) (A) (A) (A) (A)
                 (A) (A) (A) (A) (A) (A) (A) (A) (A) (A) (A) (A)
                 (A) (A) (A) (A) (A) (A) (A) (A) (A) (A) (A) (A)
                 (A) (A) (A) (A) (A) (A) (A) (A) (A) (A)
    80 initial guesses have been made.
 Convergence on wavefunction:    0.001000000000000
 Davidson Disk Diagonalization:  ConvIn= 1.00D-03 SkipCon=T Conv= 1.00D-03.
 Max sub-space:   320 roots to seek:    80 dimension of matrix:       339692
 Iteration     1 Dimension    80 NMult     0 NNew     80
 CISAX will form    80 AO SS matrices at one time.
 NMat=    80 NSing=    80 JSym2X= 0.
 FoFJK:  IHMeth= 1 ICntrl=       0 DoSepK=F KAlg= 0 I1Cent=   0 FoldK=F
 IRaf=         0 NMat= 160 IRICut=       1 DoRegI=T DoRafI=F ISym2E= 0.
 FoFCou: FMM=T IPFlag=           0 FMFlag=      100000 FMFlg1=        2001
         NFxFlg=           0 DoJE=F BraDBF=F KetDBF=F FulRan=T
         wScrn=  0.000000 ICntrl=       0 IOpCl=  0 I1Cent=           0 NGrid=           0
         NMat0=  160 NMatS0=     80 NMatT0=    0 NMatD0=  160 NMtDS0=    0 NMtDT0=    0
 Symmetry not used in FoFCou.
 FMM levels:  10  Number of levels for PrismC:   9
 New state      2 was old state     11
 New state      3 was old state      2
 New state      5 was old state      6
 New state      6 was old state      9
 New state      8 was old state      5
 New state      9 was old state      8
 New state     11 was old state     22
 New state     12 was old state     60
 New state     15 was old state     16
 New state     16 was old state     15
 New state     17 was old state     27
 New state     18 was old state     25
 New state     19 was old state     18
 New state     20 was old state     28
 Excitation Energies [eV] at current iteration:
 Root      1 :     2.340474206963006
 Root      2 :     2.404860466789605
 Root      3 :     2.438448170347504
 Root      4 :     2.677096322500900
 Root      5 :     2.709555401334697
 Root      6 :     2.750667037648439
 Root      7 :     2.780666103352405
 Root      8 :     2.799048217772927
 Root      9 :     2.838878188993227
 Root     10 :     2.892252134570183
 Root     11 :     2.908414442340178
 Root     12 :     2.947691333802381
 Root     13 :     3.023816546871294
 Root     14 :     3.030164237993445
 Root     15 :     3.052773916961269
 Root     16 :     3.084427476621095
 Root     17 :     3.103547862424997
 Root     18 :     3.164181759487477
 Root     19 :     3.272603217646961
 Root     20 :     3.316045802780789
 Root     21 :     3.322003951218103
 Root     22 :     3.327979846089347
 Root     23 :     3.348769516609850
 Root     24 :     3.376342669229870
 Root     25 :     3.397609123475730
 Root     26 :     3.437152233555269
 Root     27 :     3.454089705954700
 Root     28 :     3.495286703855752
 Root     29 :     3.513331664846632
 Root     30 :     3.534967845877111
 Root     31 :     3.630575560390747
 Root     32 :     3.648879903635719
 Root     33 :     3.664863755950648
 Root     34 :     3.729820949963417
 Root     35 :     3.751132349277682
 Root     36 :     3.761687729570236
 Root     37 :     3.809095494315741
 Root     38 :     3.846592591436658
 Root     39 :     3.852623071262331
 Root     40 :     3.877668238169968
 Root     41 :     3.903978116062508
 Root     42 :     3.915723843917605
 Root     43 :     3.928102896153495
 Root     44 :     3.975438482700782
 Root     45 :     4.035056039015418
 Root     46 :     4.057188392647944
 Root     47 :     4.087301363330887
 Root     48 :     4.114087699993036
 Root     49 :     4.124363966031360
 Root     50 :     4.138588483667990
 Root     51 :     4.145473704898290
 Root     52 :     4.154962092608049
 Root     53 :     4.169189210906547
 Root     54 :     4.188034729121717
 Root     55 :     4.195763817450579
 Root     56 :     4.207923522617988
 Root     57 :     4.218215510520016
 Root     58 :     4.231397394766488
 Root     59 :     4.267692532014125
 Root     60 :     4.286276221334356
 Root     61 :     4.291560320907989
 Root     62 :     4.303870480481387
 Root     63 :     4.314138618555583
 Root     64 :     4.328011424800315
 Root     65 :     4.373550541301696
 Root     66 :     4.385546559147881
 Root     67 :     4.386360370169706
 Root     68 :     4.406775201084012
 Root     69 :     4.429866766277431
 Root     70 :     4.437702719592935
 Root     71 :     4.445468108886928
 Root     72 :     4.455086469749185
 Root     73 :     4.474009378497586
 Root     74 :     4.494392313653382
 Root     75 :     4.495604225450368
 Root     76 :     4.503371857596622
 Root     77 :     4.535096311331987
 Root     78 :     4.682771579935921
 Root     79 :     4.795414125272877
 Root     80 :     5.366302991609793
 Iteration     2 Dimension   120 NMult    80 NNew     40
 CISAX will form    40 AO SS matrices at one time.
 NMat=    40 NSing=    40 JSym2X= 0.
 Root      1 not converged, maximum delta is    0.112101814121101
 New state      2 was old state     12
 Root      2 not converged, maximum delta is    0.402132282332605
 Root      3 not converged, maximum delta is    0.247715384212702
 New state      4 was old state      2
 Root      4 not converged, maximum delta is    0.279431721854899
 New state      5 was old state      6
 Root      5 not converged, maximum delta is    0.371589216049039
 New state      6 was old state      4
 Root      6 not converged, maximum delta is    0.305048018866695
 New state      7 was old state      5
 Root      7 not converged, maximum delta is    0.294970474605459
 New state      8 was old state     23
 Root      8 not converged, maximum delta is    0.418843286601011
 New state      9 was old state      7
 Root      9 not converged, maximum delta is    0.313891835509297
 New state     10 was old state      8
 Root     10 not converged, maximum delta is    0.110654942206965
 New state     11 was old state      9
 Root     11 not converged, maximum delta is    0.022139391699190
 New state     12 was old state     10
 Root     12 not converged, maximum delta is    0.313011241073559
 New state     13 was old state     15
 Root     13 not converged, maximum delta is    0.335804421785647
 New state     14 was old state     11
 Root     14 not converged, maximum delta is    0.334215720330680
 New state     15 was old state     13
 Root     15 not converged, maximum delta is    0.339937770338434
 New state     16 was old state     14
 Root     16 not converged, maximum delta is    0.190096412337433
 New state     17 was old state     18
 Root     17 not converged, maximum delta is    0.394193195944403
 New state     18 was old state     16
 Root     18 not converged, maximum delta is    0.148543881753268
 New state     19 was old state     17
 Root     19 not converged, maximum delta is    0.211150142056227
 New state     20 was old state     19
 Root     20 not converged, maximum delta is    0.390822879283664
 Excitation Energies [eV] at current iteration:
 Root      1 :     1.947648963172134   Change is   -0.392825243790873
 Root      2 :     2.096207083010312   Change is   -0.851484250792069
 Root      3 :     2.245099401789583   Change is   -0.193348768557921
 Root      4 :     2.373536830052238   Change is   -0.031323636737367
 Root      5 :     2.590165432886611   Change is   -0.160501604761829
 Root      6 :     2.661259175137864   Change is   -0.015837147363036
 Root      7 :     2.695790282177208   Change is   -0.013765119157489
 Root      8 :     2.699908714514319   Change is   -0.648860802095531
 Root      9 :     2.749636274683111   Change is   -0.031029828669295
 Root     10 :     2.787112677544786   Change is   -0.011935540228142
 Root     11 :     2.830841937928275   Change is   -0.008036251064952
 Root     12 :     2.882887295048602   Change is   -0.009364839521581
 Root     13 :     2.887067886681644   Change is   -0.165706030279625
 Root     14 :     2.899350518516255   Change is   -0.009063923823923
 Root     15 :     2.993089335562094   Change is   -0.030727211309201
 Root     16 :     3.010367086041674   Change is   -0.019797151951771
 Root     17 :     3.020134838751433   Change is   -0.144046920736044
 Root     18 :     3.061282804879493   Change is   -0.023144671741602
 Root     19 :     3.085716333007548   Change is   -0.017831529417450
 Root     20 :     3.142193351428921   Change is   -0.130409866218040
 Iteration     3 Dimension   160 NMult   120 NNew     40
 CISAX will form    40 AO SS matrices at one time.
 NMat=    40 NSing=    40 JSym2X= 0.
 Root      1 not converged, maximum delta is    0.030119371589434
 Root      2 not converged, maximum delta is    0.247654597689703
 New state      3 was old state      7
 Root      3 not converged, maximum delta is    0.416270294615821
 Root      4 not converged, maximum delta is    0.539032824146868
 New state      5 was old state      3
 Root      5 not converged, maximum delta is    0.041347218551967
 New state      6 was old state      8
 Root      6 not converged, maximum delta is    0.447316568332451
 New state      7 was old state      5
 Root      7 not converged, maximum delta is    0.071292378672471
 New state      8 was old state      6
 Root      8 not converged, maximum delta is    0.087771753218695
 No map to state      9
 New state     10 was old state      9
 Root     10 not converged, maximum delta is    0.009346324530491
 New state     11 was old state     10
 Root     11 not converged, maximum delta is    0.009026945189384
 New state     12 was old state     11
 Root     12 not converged, maximum delta is    0.002901515729818
 New state     13 was old state     12
 Root     13 not converged, maximum delta is    0.109747696709278
 New state     14 was old state     13
 Root     14 not converged, maximum delta is    0.321061210016919
 New state     15 was old state     14
 Root     15 not converged, maximum delta is    0.333067340982014
 New state     16 was old state     15
 Root     16 not converged, maximum delta is    0.316150677358532
 New state     17 was old state     19
 Root     17 not converged, maximum delta is    0.529014502414508
 New state     18 was old state     16
 Root     18 not converged, maximum delta is    0.182426139704090
 New state     19 was old state     17
 Root     19 not converged, maximum delta is    0.204640496119438
 New state     20 was old state     18
 Root     20 not converged, maximum delta is    0.291850846321527
 Excitation Energies [eV] at current iteration:
 Root      1 :     1.925004639522980   Change is   -0.022644323649154
 Root      2 :     2.040351098186537   Change is   -0.055855984823775
 Root      3 :     2.056819733143881   Change is   -0.638970549033327
 Root      4 :     2.132609151537892   Change is   -0.240927678514346
 Root      5 :     2.230873402433938   Change is   -0.014225999355645
 Root      6 :     2.398588326153896   Change is   -0.301320388360423
 Root      7 :     2.587180014582177   Change is   -0.002985418304434
 Root      8 :     2.662012233312388   Change is    0.000753058174525
 Root      9 :     2.697010000068939
 Root     10 :     2.748269358934471   Change is   -0.001366915748640
 Root     11 :     2.786542210531576   Change is   -0.000570467013210
 Root     12 :     2.830528294256726   Change is   -0.000313643671549
 Root     13 :     2.882708743553598   Change is   -0.000178551495004
 Root     14 :     2.887426936496509   Change is    0.000359049814865
 Root     15 :     2.902006865537302   Change is    0.002656347021047
 Root     16 :     2.968501123952827   Change is   -0.024588211609266
 Root     17 :     2.978803604865628   Change is   -0.106912728141920
 Root     18 :     2.989257163021612   Change is   -0.021109923020063
 Root     19 :     3.010361571199093   Change is   -0.009773267552340
 Root     20 :     3.041923545762732   Change is   -0.019359259116760
 Iteration     4 Dimension   200 NMult   160 NNew     40
 CISAX will form    40 AO SS matrices at one time.
 NMat=    40 NSing=    40 JSym2X= 0.
 Root      1 not converged, maximum delta is    0.062465353790789
 New state      2 was old state      3
 Root      2 not converged, maximum delta is    0.197847571702698
 New state      3 was old state      2
 Root      3 not converged, maximum delta is    0.300735193518091
 Root      4 not converged, maximum delta is    0.025726273201284
 Root      5 not converged, maximum delta is    0.010890388371659
 Root      6 not converged, maximum delta is    0.080740167971699
 Root      7 not converged, maximum delta is    0.019725942144313
 Root      8 not converged, maximum delta is    0.020400781251883
 Root      9 not converged, maximum delta is    0.002768681446206
 Root     10 not converged, maximum delta is    0.014602674211128
 Root     11 not converged, maximum delta is    0.021109575548743
 New state     12 was old state     17
 Root     12 not converged, maximum delta is    0.293252156702267
 New state     13 was old state     12
 Root     13 not converged, maximum delta is    0.111491240240305
 New state     14 was old state     13
 Root     14 not converged, maximum delta is    0.057340958495310
 New state     15 was old state     14
 Root     15 not converged, maximum delta is    0.084163944258679
 New state     16 was old state     15
 Root     16 not converged, maximum delta is    0.071380252286190
 New state     17 was old state     16
 Root     17 not converged, maximum delta is    0.255551939023748
 Root     18 not converged, maximum delta is    0.084765762664390
 Root     19 not converged, maximum delta is    0.043739520152963
 Root     20 not converged, maximum delta is    0.087525802256634
 Excitation Energies [eV] at current iteration:
 Root      1 :     1.921230048700295   Change is   -0.003774590822685
 Root      2 :     1.964374589676143   Change is   -0.092445143467738
 Root      3 :     2.038784786792549   Change is   -0.001566311393988
 Root      4 :     2.120720609815625   Change is   -0.011888541722267
 Root      5 :     2.228740775727771   Change is   -0.002132626706167
 Root      6 :     2.363407579119418   Change is   -0.035180747034478
[...]
 Alpha virt. eigenvalues --    0.52230   0.52702   0.52954   0.53388   0.53479
 Alpha virt. eigenvalues --    0.53514   0.53730   0.53853   0.54165   0.54416
 Alpha virt. eigenvalues --    0.54446   0.54652   0.55041   0.55227   0.55464
 Alpha virt. eigenvalues --    0.55740   0.55931   0.56623   0.56748   0.57135
 Alpha virt. eigenvalues --    0.57487   0.57714   0.57807   0.57984   0.58149
 Alpha virt. eigenvalues --    0.58291   0.58464   0.58699   0.58961   0.59304
 Alpha virt. eigenvalues --    0.59579   0.60171   0.60519   0.60919   0.61171
 Alpha virt. eigenvalues --    0.61459   0.61669   0.61887   0.62049   0.62388
 Alpha virt. eigenvalues --    0.62808   0.63017   0.63409   0.63964   0.64184
 Alpha virt. eigenvalues --    0.64520   0.64658   0.65359   0.65524   0.66007
 Alpha virt. eigenvalues --    0.66464   0.66783   0.67220   0.67353   0.67848
 Alpha virt. eigenvalues --    0.68336   0.68884   0.69197   0.69700   0.70022
 Alpha virt. eigenvalues --    0.70890   0.71429   0.71595   0.72418   0.73320
 Alpha virt. eigenvalues --    0.73556   0.73673   0.74219   0.74670   0.75390
 Alpha virt. eigenvalues --    0.75721   0.76048   0.76492   0.76655   0.77067
 Alpha virt. eigenvalues --    0.77431   0.77624   0.77933   0.78136   0.78427
 Alpha virt. eigenvalues --    0.78855   0.79149   0.79314   0.79578   0.79791
 Alpha virt. eigenvalues --    0.80443   0.80491   0.81004   0.81227   0.81567
 Alpha virt. eigenvalues --    0.81909   0.82813   0.83392   0.83532   0.83845
 Alpha virt. eigenvalues --    0.84209   0.84912   0.85047   0.85776   0.85937
 Alpha virt. eigenvalues --    0.87103   0.87516   0.87724   0.88302   0.88440
 Alpha virt. eigenvalues --    0.88476   0.89096   0.89364   0.89649   0.89880
 Alpha virt. eigenvalues --    0.90313   0.90443   0.90864   0.91256   0.91416
 Alpha virt. eigenvalues --    0.91930   0.92114   0.92482   0.92873   0.93054
 Alpha virt. eigenvalues --    0.93960   0.94194   0.94853   0.94984   0.95479
 Alpha virt. eigenvalues --    0.95987   0.96019   0.96527   0.96836   0.97031
 Alpha virt. eigenvalues --    0.97325   0.97817   0.97959   0.98361   0.98553
 Alpha virt. eigenvalues --    0.99103   0.99371   0.99676   0.99771   0.99997
 Alpha virt. eigenvalues --    1.00393   1.00466   1.00753   1.01209   1.01755
 Alpha virt. eigenvalues --    1.02057   1.02131   1.02190   1.02744   1.03165
 Alpha virt. eigenvalues --    1.03568   1.03786   1.04096   1.04697   1.05023
 Alpha virt. eigenvalues --    1.05167   1.05375   1.06068   1.06123   1.06950
 Alpha virt. eigenvalues --    1.07221   1.07707   1.08782   1.09519   1.10482
 Alpha virt. eigenvalues --    1.10920   1.11150   1.11374   1.12715   1.13430
 Alpha virt. eigenvalues --    1.13783   1.14553   1.14865   1.15257   1.15923
 Alpha virt. eigenvalues --    1.16625   1.17106   1.17357   1.18246   1.18804
 Alpha virt. eigenvalues --    1.19109   1.19306   1.20229   1.20429   1.21082
 Alpha virt. eigenvalues --    1.21281   1.21498   1.21909   1.22290   1.22460
 Alpha virt. eigenvalues --    1.22671   1.22947   1.23279   1.23327   1.23610
 Alpha virt. eigenvalues --    1.23852   1.24282   1.24634   1.24947   1.25201
 Alpha virt. eigenvalues --    1.25783   1.26363   1.26770   1.27455   1.27936
 Alpha virt. eigenvalues --    1.28393   1.28514   1.28967   1.29104   1.29490
 Alpha virt. eigenvalues --    1.30176   1.30569   1.30680   1.31154   1.31705
 Alpha virt. eigenvalues --    1.32137   1.32260   1.32758   1.33489   1.33763
 Alpha virt. eigenvalues --    1.34000   1.34286   1.34367   1.34592   1.34718
 Alpha virt. eigenvalues --    1.34952   1.35354   1.35761   1.36256   1.36467
 Alpha virt. eigenvalues --    1.36553   1.37017   1.37122   1.37585   1.37854
 Alpha virt. eigenvalues --    1.37981   1.38446   1.38682   1.38815   1.39252
 Alpha virt. eigenvalues --    1.39760   1.39993   1.40192   1.40601   1.41588
 Alpha virt. eigenvalues --    1.42013   1.42256   1.42422   1.42685   1.43329
 Alpha virt. eigenvalues --    1.43577   1.44012   1.44580   1.44814   1.44857
 Alpha virt. eigenvalues --    1.45613   1.45860   1.46589   1.47095   1.47711
 Alpha virt. eigenvalues --    1.47848   1.47994   1.48498   1.49007   1.49537
 Alpha virt. eigenvalues --    1.50040   1.50664   1.50893   1.51213   1.51441
 Alpha virt. eigenvalues --    1.51927   1.52307   1.53022   1.54258   1.54364
 Alpha virt. eigenvalues --    1.54540   1.55670   1.56158   1.56951   1.57060
 Alpha virt. eigenvalues --    1.57836   1.58542   1.59672   1.60205   1.61236
 Alpha virt. eigenvalues --    1.62219   1.63091   1.63930   1.64523   1.65488
 Alpha virt. eigenvalues --    1.65685   1.65743   1.65841   1.66061   1.66256
 Alpha virt. eigenvalues --    1.66493   1.66616   1.66829   1.67061   1.67187
 Alpha virt. eigenvalues --    1.67731   1.68040   1.68460   1.68535   1.68714
 Alpha virt. eigenvalues --    1.68893   1.69357   1.69531   1.70135   1.70209
 Alpha virt. eigenvalues --    1.70370   1.70780   1.71066   1.71633   1.72272
 Alpha virt. eigenvalues --    1.73003   1.73383   1.73546   1.73558   1.73672
 Alpha virt. eigenvalues --    1.73968   1.74091   1.74165   1.74626   1.74971
 Alpha virt. eigenvalues --    1.75400   1.75766   1.75857   1.76090   1.76594
 Alpha virt. eigenvalues --    1.76711   1.76917   1.76991   1.77230   1.77309
 Alpha virt. eigenvalues --    1.77499   1.77578   1.77725   1.78095   1.78177
 Alpha virt. eigenvalues --    1.78434   1.78772   1.79045   1.79486   1.79829
 Alpha virt. eigenvalues --    1.80009   1.80533   1.80714   1.81378   1.81770
 Alpha virt. eigenvalues --    1.81900   1.82001   1.82089   1.82141   1.82271
 Alpha virt. eigenvalues --    1.82470   1.82731   1.82893   1.83363   1.83366
 Alpha virt. eigenvalues --    1.83615   1.83937   1.84034   1.84171   1.84771
 Alpha virt. eigenvalues --    1.84819   1.84896   1.85119   1.85237   1.85578
 Alpha virt. eigenvalues --    1.86097   1.86327   1.86558   1.86728   1.86902
 Alpha virt. eigenvalues --    1.87090   1.87541   1.87619   1.87915   1.88343
 Alpha virt. eigenvalues --    1.88597   1.88867   1.89133   1.89234   1.89267
 Alpha virt. eigenvalues --    1.89374   1.89635   1.89789   1.90709   1.90987
 Alpha virt. eigenvalues --    1.91245   1.91610   1.92075   1.92341   1.92473
 Alpha virt. eigenvalues --    1.92854   1.93289   1.93481   1.93643   1.93803
 Alpha virt. eigenvalues --    1.93927   1.94268   1.94326   1.94564   1.95033
 Alpha virt. eigenvalues --    1.95399   1.95606   1.96088   1.96240   1.96577
 Alpha virt. eigenvalues --    1.97192   1.97558   1.97849   1.98015   1.98252
 Alpha virt. eigenvalues --    1.98626   1.98937   1.99626   1.99669   2.00030
 Alpha virt. eigenvalues --    2.00196   2.00326   2.01120   2.01795   2.02040
 Alpha virt. eigenvalues --    2.02391   2.02571   2.02912   2.03307   2.03819
 Alpha virt. eigenvalues --    2.04421   2.04677   2.05556   2.05680   2.06557
 Alpha virt. eigenvalues --    2.06840   2.06891   2.07534   2.07837   2.08491
 Alpha virt. eigenvalues --    2.08719   2.09240   2.09413   2.09704   2.10166
 Alpha virt. eigenvalues --    2.10854   2.12375   2.12938   2.13289   2.13836
 Alpha virt. eigenvalues --    2.14574   2.15072   2.15239   2.15503   2.15898
 Alpha virt. eigenvalues --    2.16721   2.17007   2.17563   2.18209   2.18644
 Alpha virt. eigenvalues --    2.19361   2.19875   2.20680   2.20847   2.21100
 Alpha virt. eigenvalues --    2.21720   2.22113   2.22860   2.23173   2.23457
 Alpha virt. eigenvalues --    2.23958   2.24074   2.24429   2.25180   2.25495
 Alpha virt. eigenvalues --    2.26071   2.26136   2.26438   2.26719   2.26946
 Alpha virt. eigenvalues --    2.27308   2.27513   2.27735   2.28014   2.28435
 Alpha virt. eigenvalues --    2.28879   2.29288   2.29495   2.29930   2.30073
 Alpha virt. eigenvalues --    2.30122   2.30335   2.30715   2.31128   2.32240
 Alpha virt. eigenvalues --    2.32718   2.32954   2.33111   2.33286   2.33757
 Alpha virt. eigenvalues --    2.34520   2.34893   2.35177   2.35862   2.36377
 Alpha virt. eigenvalues --    2.36696   2.37210   2.37488   2.37812   2.38104
 Alpha virt. eigenvalues --    2.38620   2.38832   2.39053   2.39738   2.40129
 Alpha virt. eigenvalues --    2.40651   2.40939   2.41134   2.41339   2.41433
 Alpha virt. eigenvalues --    2.42211   2.42678   2.42949   2.43309   2.43816
 Alpha virt. eigenvalues --    2.44744   2.44784   2.45765   2.46042   2.46525
 Alpha virt. eigenvalues --    2.46709   2.47002   2.47102   2.47569   2.48026
 Alpha virt. eigenvalues --    2.48342   2.48654   2.49700   2.50058   2.50586
 Alpha virt. eigenvalues --    2.51031   2.52243   2.52758   2.53478   2.53725
 Alpha virt. eigenvalues --    2.54511   2.55118   2.55227   2.55718   2.56392
 Alpha virt. eigenvalues --    2.56911   2.57750   2.58613   2.58994   2.59392
 Alpha virt. eigenvalues --    2.59852   2.59941   2.60025   2.60235   2.60498
 Alpha virt. eigenvalues --    2.60632   2.61083   2.61408   2.61921   2.62131
 Alpha virt. eigenvalues --    2.62591   2.63215   2.63675   2.64154   2.64309
 Alpha virt. eigenvalues --    2.64574   2.64700   2.65086   2.65789   2.66402
 Alpha virt. eigenvalues --    2.67016   2.67341   2.68062   2.68224   2.68677
 Alpha virt. eigenvalues --    2.69081   2.69639   2.69986   2.71268   2.71938
 Alpha virt. eigenvalues --    2.72245   2.72412   2.73046   2.73476   2.74166
 Alpha virt. eigenvalues --    2.74389   2.75926   2.76692   2.76870   2.77805
 Alpha virt. eigenvalues --    2.78022   2.78294   2.78421   2.79188   2.80437
 Alpha virt. eigenvalues --    2.81786   2.82542   2.82707   2.83533   2.83588
 Alpha virt. eigenvalues --    2.83830   2.84139   2.84474   2.85179   2.86067
 Alpha virt. eigenvalues --    2.87963   2.89702   2.89813   2.90467   2.92010
 Alpha virt. eigenvalues --    2.92643   2.93241   2.94476   2.94807   2.96309
 Alpha virt. eigenvalues --    2.97774   2.98327   2.99366   3.00619   3.01171
 Alpha virt. eigenvalues --    3.01613   3.03145   3.04541   3.05858   3.06158
 Alpha virt. eigenvalues --    3.06325   3.07044   3.09417   3.10705   3.11846
 Alpha virt. eigenvalues --    3.12048   3.12343   3.12685   3.13018   3.13797
 Alpha virt. eigenvalues --    3.15701   3.17825   3.18650   3.20593   3.20914
 Alpha virt. eigenvalues --    3.21316   3.21387   3.21666   3.22253   3.22985
 Alpha virt. eigenvalues --    3.23359   3.23615   3.23923   3.27053   3.28130
 Alpha virt. eigenvalues --    3.28583   3.28711   3.29197   3.29674   3.30556
 Alpha virt. eigenvalues --    3.31434   3.32768   3.34342   3.35737   3.36952
 Alpha virt. eigenvalues --    3.39310   3.39660   3.39852   3.40031   3.40148
 Alpha virt. eigenvalues --    3.40669   3.41614   3.44365   3.44457   3.44678
 Alpha virt. eigenvalues --    3.45215   3.49310   3.50476   3.50882   3.55493
 Alpha virt. eigenvalues --    3.58215   3.64858   3.66189   3.66575   3.69758
 Alpha virt. eigenvalues --    3.70890   3.81712   3.82855   3.83781   3.84970
 Alpha virt. eigenvalues --    4.01655   4.03104   4.04250   4.07969   4.34540
 Alpha virt. eigenvalues --    4.36120   4.37895   4.39294   4.40553   4.41733
 Alpha virt. eigenvalues --    4.42928   4.43272   4.49523   4.50347   4.51053
 Alpha virt. eigenvalues --    4.51468   4.54375   4.55322   4.55960   4.56243
 Alpha virt. eigenvalues --    4.57274   4.58325   4.58682   4.59552   4.59783
 Alpha virt. eigenvalues --    4.60432   4.60856   4.62670   4.62961   4.64290
 Alpha virt. eigenvalues --    4.64985   4.65732   4.67321   4.68116   4.71421
 Alpha virt. eigenvalues --    4.74099   4.75648   4.76682   4.78472   4.84214
 Alpha virt. eigenvalues --    4.86091   4.89193   4.91947   4.93222   4.96691
 Alpha virt. eigenvalues --    4.98029   4.98528   5.00317   5.00620   5.01264
 Alpha virt. eigenvalues --    5.20827   5.68661   5.71969   5.73914   6.18346
 Alpha virt. eigenvalues --    6.21807   6.24835   6.85577   6.86059   6.88714
 Alpha virt. eigenvalues --    7.33154   7.36383   7.42093   8.37928   8.39558
 Alpha virt. eigenvalues --    8.43891  39.07411
          Condensed to atoms (all electrons):
 Mulliken charges:
               1
     1  C    0.290787
     2  C    0.539907
     3  C   -0.536654
     4  C    0.581227
     5  C    0.520279
     6  C    0.056818
     7  C    0.659131
     8  C   -0.515691
     9  C    0.010096
    10  C   -0.908814
    11  C    0.417481
    12  H    0.118357
    13  H    0.113834
    14  H    0.114423
    15  N    0.142735
    16  N    0.151000
    17  N    0.110413
    18  N    0.121842
    19  C   -0.532246
    20  H    0.113245
    21  C   -0.387667
    22  H    0.107018
    23  C    0.458425
    24  C   -0.466747
    25  H    0.115940
    26  C    0.303937
    27  C    0.426727
    28  C    0.304509
    29  C    0.282769
    30  C   -0.717270
    31  C    0.026816
    32  C    0.437588
    33  C    0.189633
    34  C    0.193690
    35  C    0.602748
    36  C   -0.631613
    37  C    0.368561
    38  C   -0.195848
    39  C    0.303486
    40  C    0.328621
    41  C    0.525505
    42  C   -0.771354
    43  C   -0.003274
    44  C    0.282725
    45  C    0.335323
    46  C    0.358787
    47  C    0.514280
    48  Ni   0.109920
    49  C   -0.261597
    50  S   -0.063665
    51  C   -0.284600
    52  F   -0.297451
    53  F   -0.347041
    54  F   -0.344053
    55  F   -0.345548
    56  F   -0.297616
    57  F   -0.296405
    58  F   -0.350114
    59  F   -0.343558
    60  F   -0.349424
    61  F   -0.294995
    62  F   -0.293546
    63  F   -0.345541
    64  F   -0.342139
    65  F   -0.345842
    66  F   -0.297399
    67  O   -0.570307
    68  C    0.069388
    69  C   -0.108920
    70  H    0.118783
    71  H    0.138033
    72  H    0.169905
    73  C   -0.424898
    74  H    0.137147
 Sum of Mulliken charges =  -1.00000
 Mulliken charges with hydrogens summed into heavy atoms:
               1
     1  C    0.290787
     2  C    0.539907
     3  C   -0.422231
     4  C    0.581227
     5  C    0.520279
     6  C    0.056818
     7  C    0.659131
     8  C   -0.401857
     9  C    0.010096
    10  C   -0.790456
    11  C    0.417481
    15  N    0.142735
    16  N    0.151000
    17  N    0.110413
    18  N    0.121842
    19  C   -0.419001
    21  C   -0.280649
    23  C    0.458425
    24  C   -0.350807
    26  C    0.303937
    27  C    0.426727
    28  C    0.304509
    29  C    0.282769
    30  C   -0.717270
    31  C    0.026816
    32  C    0.437588
    33  C    0.189633
    34  C    0.193690
    35  C    0.602748
    36  C   -0.631613
    37  C    0.368561
    38  C   -0.195848
    39  C    0.303486
    40  C    0.328621
    41  C    0.525505
    42  C   -0.771354
    43  C   -0.003274
    44  C    0.282725
    45  C    0.335323
    46  C    0.358787
    47  C    0.514280
    48  Ni   0.109920
    49  C   -0.261597
    50  S   -0.063665
    51  C   -0.165817
    52  F   -0.297451
    53  F   -0.347041
    54  F   -0.344053
    55  F   -0.345548
    56  F   -0.297616
    57  F   -0.296405
    58  F   -0.350114
    59  F   -0.343558
    60  F   -0.349424
    61  F   -0.294995
    62  F   -0.293546
    63  F   -0.345541
    64  F   -0.342139
    65  F   -0.345842
    66  F   -0.297399
    67  O   -0.570307
    68  C    0.239292
    69  C    0.029113
    73  C   -0.287751
 Electronic spatial extent (au):  <R**2>=          57180.1047
 Charge=             -1.0000 electrons
 Dipole moment (field-independent basis, Debye):
    X=              1.8491    Y=              4.5742    Z=              2.5553  Tot=              5.5562
 Quadrupole moment (field-independent basis, Debye-Ang):
   XX=           -452.8404   YY=           -438.0317   ZZ=           -411.5042
   XY=             -4.0158   XZ=             -0.7205   YZ=             -5.3237
 Traceless Quadrupole moment (field-independent basis, Debye-Ang):
   XX=            -18.7150   YY=             -3.9063   ZZ=             22.6212
   XY=             -4.0158   XZ=             -0.7205   YZ=             -5.3237
 Octapole moment (field-independent basis, Debye-Ang**2):
  XXX=            141.7466  YYY=              9.0479  ZZZ=             30.3506  XYY=            -79.3131
  XXY=             96.2994  XXZ=            -11.9265  XZZ=             25.0054  YZZ=             49.0124
  YYZ=             59.4706  XYZ=             62.8103
 Hexadecapole moment (field-independent basis, Debye-Ang**3):
 XXXX=         -44172.0530 YYYY=         -29671.9597 ZZZZ=          -5547.6693 XXXY=           1325.8006
 XXXZ=            -32.3017 YYYX=          -1404.8978 YYYZ=           -134.9272 ZZZX=            -78.4866
 ZZZY=           -160.1007 XXYY=         -12089.5205 XXZZ=          -8256.3943 YYZZ=          -5973.8962
 XXYZ=             87.7895 YYXZ=           -133.4897 ZZXY=            -89.0996
 N-N= 1.067041444796D+04 E-N=-3.389885308932D+04  KE= 5.271948734309D+03
 Leave Link  601 at Sun Mar 14 04:32:01 2021, MaxMem= 13421772800 cpu:        29.6
 (Enter /local/apl/lx/g09d01/g09/l9999.exe)
 1\1\GINC-CCNF017\SP\RB3LYP TD-FC\6-31+G(d,p)\C42H10F15N4Ni1O1S1(1-)\BB
 M\14-Mar-2021\0\\#p td=(nstates=20) b3lyp/6-31+g(d,p) geom=connectivit
 y scf=maxcyc=1000\\title\\-1,1\C,0,-1.997312,-2.505319,-1.14001\C,0,2.
 226808,1.608492,-0.263118\C,0,4.140929,0.541714,0.264739\C,0,3.053834,
 -0.392808,0.140097\C,0,2.166438,-2.648307,-0.229939\C,0,0.32892,-3.327
 169,-1.205407\C,0,-0.055921,2.481847,-0.257163\C,0,-1.008056,3.547411,
 -0.039296\C,0,-2.83253,-0.757659,-0.10019\C,0,-3.894132,-1.677277,-0.2
 66349\C,0,-1.995071,1.534833,0.184321\H,0,-4.921192,-1.510437,0.025408
 \H,0,-0.785977,4.604194,-0.085974\H,0,5.161337,0.284499,0.512406\N,0,0
 .906836,-2.235303,-0.62579\N,0,-1.659042,-1.291531,-0.596379\N,0,1.882
 398,0.283787,-0.175789\N,0,-0.676631,1.262048,-0.149271\C,0,3.641442,1
 .774398,-0.029632\H,0,4.171864,2.716124,-0.04776\C,0,2.341,-4.035903,-
 0.52225\H,0,3.228701,-4.615472,-0.308842\C,0,-3.399058,-2.781704,-0.94
 8329\C,0,-2.191993,2.959784,0.282152\H,0,-3.124608,3.446173,0.531877\C
 ,0,-1.022884,-3.407407,-1.726439\C,0,-2.99044,0.582873,0.306997\C,0,3.
 178089,-1.772208,0.196622\C,0,1.320974,2.667291,-0.403828\C,0,4.486795
 ,-2.363393,0.612118\C,0,5.562184,-2.501095,-0.272834\C,0,4.690861,-2.8
 27546,1.916769\C,0,6.7784,-3.062352,0.112888\C,0,5.896237,-3.393923,2.
 327497\C,0,6.944955,-3.510913,1.41986\C,0,1.858665,4.05175,-0.549107\C
 ,0,2.243457,4.557845,-1.797586\C,0,2.022506,4.914248,0.542681\C,0,2.75
 8104,5.843138,-1.959318\C,0,2.531308,6.204805,0.409035\C,0,2.90119,6.6
 70569,-0.849411\C,0,-4.343655,1.012982,0.7754\C,0,-5.296053,1.559835,-
 0.092088\C,0,-4.729594,0.870417,2.113166\C,0,-6.561684,1.951714,0.3404
 75\C,0,-5.989501,1.251834,2.57114\C,0,-6.909593,1.79472,1.678981\Ni,0,
 0.115833,-0.490587,-0.399174\C,0,-4.2045,-3.95592,-1.276203\S,0,-5.599
 586,-4.310453,-0.249588\C,0,-5.19354,-5.838334,-2.275034\F,0,3.709571,
 -2.729173,2.82811\F,0,6.057859,-3.823127,3.591908\F,0,8.112859,-4.0526
 19,1.803858\F,0,7.79159,-3.175751,-0.765064\F,0,5.446598,-2.088789,-1.
 54617\F,0,2.118697,3.799369,-2.898977\F,0,3.112817,6.294287,-3.176075\
 F,0,3.39402,7.912413,-0.9917\F,0,2.674778,7.002503,1.483522\F,0,1.6928
 31,4.505885,1.780073\F,0,-5.006501,1.727133,-1.39326\F,0,-7.449532,2.4
 7879,-0.521861\F,0,-8.12618,2.169337,2.1084\F,0,-6.323479,1.104356,3.8
 65681\F,0,-3.873086,0.355588,3.010439\O,0,-1.327711,-4.292482,-2.55090
 9\C,0,-4.141101,-4.875417,-2.302555\C,0,-6.063366,-5.662665,-1.23098\H
 ,0,-5.295731,-6.63165,-3.008126\H,0,-6.935885,-6.248429,-0.974415\H,0,
 -3.344925,-4.847863,-3.032191\C,0,1.196583,-4.449521,-1.166072\H,0,0.9
 49465,-5.422394,-1.564968\\Version=ES64L-G09RevD.01\State=1-A\HF=-5304
 .9247282\RMSD=3.151e-09\PG=C01 [X(C42H10F15N4Ni1O1S1)]\\@


 OF ALL THE WONDERS OF THE UNIVERSE, THE GREATEST IS MAN.

                                    -- ARISTOTLE
 Job cpu time:       3 days  9 hours 23 minutes 29.9 seconds.
 File lengths (MBytes):  RWF=   7570 Int=      0 D2E=      0 Chk=   1137 Scr=      1
 Normal termination of Gaussian 09 at Sun Mar 14 04:32:04 2021.
