 Entering Gaussian System, Link 0=/local/apl/lx/g16c01/g16/._.g16
 Initial command:
 /local/apl/lx/g16c01/g16/l1.exe "/work/users/cpi/4775712.cccms1/Gau-154761.inp" -scrdir="/work/users/cpi/4775712.cccms1/"
 Default CPUs for threads: 0,1,2,3,4,5,6,7,8,9,10,11,12,13,14,15,16,17
 Default is to use a total of  18 processors:
                               18 via shared-memory
                                1 via Linda
 Entering Link 1 = /local/apl/lx/g16c01/g16/l1.exe PID=    154762.
  
 Copyright (c) 1988-2019, Gaussian, Inc.  All Rights Reserved.
  
 This is part of the Gaussian(R) 16 program.  It is based on
 the Gaussian(R) 09 system (copyright 2009, Gaussian, Inc.),
 the Gaussian(R) 03 system (copyright 2003, Gaussian, Inc.),
 the Gaussian(R) 98 system (copyright 1998, Gaussian, Inc.),
 the Gaussian(R) 94 system (copyright 1995, Gaussian, Inc.),
 the Gaussian 92(TM) system (copyright 1992, Gaussian, Inc.),
 the Gaussian 90(TM) system (copyright 1990, Gaussian, Inc.),
 the Gaussian 88(TM) system (copyright 1988, Gaussian, Inc.),
 the Gaussian 86(TM) system (copyright 1986, Carnegie Mellon
 University), and the Gaussian 82(TM) system (copyright 1983,
 Carnegie Mellon University). Gaussian is a federally registered
 trademark of Gaussian, Inc.
  
 This software contains proprietary and confidential information,
 including trade secrets, belonging to Gaussian, Inc.
  
 This software is provided under written license and may be
 used, copied, transmitted, or stored only in accord with that
 written license.
  
 The following legend is applicable only to US Government
 contracts under FAR:
  
                    RESTRICTED RIGHTS LEGEND
  
 Use, reproduction and disclosure by the US Government is
 subject to restrictions as set forth in subparagraphs (a)
 and (c) of the Commercial Computer Software - Restricted
 Rights clause in FAR 52.227-19.
  
 Gaussian, Inc.
 340 Quinnipiac St., Bldg. 40, Wallingford CT 06492
  
  
 ---------------------------------------------------------------
 Warning -- This program may not be used in any manner that
 competes with the business of Gaussian, Inc. or will provide
 assistance to any competitor of Gaussian, Inc.  The licensee
 of this program is prohibited from giving any competitor of
 Gaussian, Inc. access to this program.  By using this program,
 the user acknowledges that Gaussian, Inc. is engaged in the
 business of creating and licensing software in the field of
 computational chemistry and represents and warrants to the
 licensee that it is not a competitor of Gaussian, Inc. and that
 it will not use this program in any manner prohibited above.
 ---------------------------------------------------------------
  

 Cite this work as:
 Gaussian 16, Revision C.01,
 M. J. Frisch, G. W. Trucks, H. B. Schlegel, G. E. Scuseria, 
 M. A. Robb, J. R. Cheeseman, G. Scalmani, V. Barone, 
 G. A. Petersson, H. Nakatsuji, X. Li, M. Caricato, A. V. Marenich, 
 J. Bloino, B. G. Janesko, R. Gomperts, B. Mennucci, H. P. Hratchian, 
 J. V. Ortiz, A. F. Izmaylov, J. L. Sonnenberg, D. Williams-Young, 
 F. Ding, F. Lipparini, F. Egidi, J. Goings, B. Peng, A. Petrone, 
 T. Henderson, D. Ranasinghe, V. G. Zakrzewski, J. Gao, N. Rega, 
 G. Zheng, W. Liang, M. Hada, M. Ehara, K. Toyota, R. Fukuda, 
 J. Hasegawa, M. Ishida, T. Nakajima, Y. Honda, O. Kitao, H. Nakai, 
 T. Vreven, K. Throssell, J. A. Montgomery, Jr., J. E. Peralta, 
 F. Ogliaro, M. J. Bearpark, J. J. Heyd, E. N. Brothers, K. N. Kudin, 
 V. N. Staroverov, T. A. Keith, R. Kobayashi, J. Normand, 
 K. Raghavachari, A. P. Rendell, J. C. Burant, S. S. Iyengar, 
 J. Tomasi, M. Cossi, J. M. Millam, M. Klene, C. Adamo, R. Cammi, 
 J. W. Ochterski, R. L. Martin, K. Morokuma, O. Farkas, 
 J. B. Foresman, and D. J. Fox, Gaussian, Inc., Wallingford CT, 2019.
 
 ******************************************
 Gaussian 16:  ES64L-G16RevC.01  3-Jul-2019
                20-Oct-2021 
 ******************************************
 %mem=100GB
 %nprocshare=16
 Will use up to   16 processors via shared memory.
 %chk=Ni_3C6F5_Por_dithiophene_O-.chk
 ----------------------------------------------------
 # opt b3lyp/genecp geom=connectivity scf=maxcyc=1000
 ----------------------------------------------------
 1/18=20,19=15,26=3,38=1,57=2/1,3;
 2/9=110,12=2,17=6,18=5,40=1/2;
 3/5=7,11=2,16=1,17=8,25=1,30=1,71=1,74=-5/1,2,3;
 4//1;
 5/5=2,7=1000,38=5/2;
 6/7=2,8=2,9=2,10=2,28=1/1;
 7//1,2,3,16;
 1/18=20,19=15,26=3/3(2);
 2/9=110/2;
 99//99;
 2/9=110/2;
 3/5=7,6=1,11=2,16=1,17=8,25=1,30=1,71=1,74=-5,82=7/1,2,3;
 4/5=5,16=3,69=1/1;
 5/5=2,7=1000,38=5/2;
 7//1,2,3,16;
 1/18=20,19=15,26=3/3(-5);
 2/9=110/2;
 6/7=2,8=2,9=2,10=2,19=2,28=1/1;
 99/9=1/99;
 -----
 title
 -----
 Symbolic Z-matrix:
 Charge = -1 Multiplicity = 1
 C                    -1.24967  -2.33664  -0.92263 
 C                     1.20955   2.7929   -0.29982 
 C                     3.4644    2.57969   0.29687 
 C                     2.75834   1.23611   0.24225 
 C                     2.65026  -1.06998   0.12712 
 C                     2.35638  -3.09248  -0.71858 
 C                     1.18761  -2.3736   -0.9094 
 C                    -1.14887   2.86192  -0.20508 
 C                    -2.48889   3.58896   0.00936 
 C                    -2.68511  -0.99655   0.11247 
 C                    -3.28508  -2.24465   0.013 
 C                    -2.7325    1.314     0.28681 
 H                    -4.2332   -2.53933   0.40742 
 H                    -2.65123   4.63971  -0.09204 
 H                     4.47479   2.75715   0.59957 
 N                     1.30348  -1.15183  -0.38376 
 N                    -1.33322  -1.11089  -0.38886 
 N                     1.34608   1.47561  -0.1357 
 N                    -1.31317   1.52164  -0.06699 
 C                     2.56853   3.49739  -0.10175 
 H                     2.75583   4.54019  -0.22997 
 C                     3.22553  -2.32538   0.03145 
 H                     4.16173  -2.64076   0.43802 
 C                    -2.43062  -3.03262  -0.73371 
 C                    -3.41135   2.67612   0.35679 
 H                    -4.42579   2.86667   0.63103 
 C                    -0.03336  -2.9204   -1.56259 
 C                    -3.316     0.13678   0.52357 
 C                     3.31096   0.05231   0.51845 
 C                     0.04199   3.48949  -0.51409 
 C                     4.66341  -0.07395   1.21603 
 C                     5.80653   0.17391   0.46692 
 C                     4.76003  -0.43955   2.56807 
 C                     7.06535  -0.00258   1.04175 
 C                     6.02189  -0.52273   3.17174 
 C                     7.17586  -0.32991   2.3999 
 C                     0.06913   4.94577  -1.01713 
 C                     0.318     5.23316  -2.37522 
 C                    -0.15531   5.98579  -0.11645 
 C                     0.29509   6.56503  -2.82159 
 C                    -0.08489   7.31608  -0.54766 
 C                     0.11712   7.60655  -1.90249 
 C                    -4.68102   0.03666   1.19034 
 C                    -5.80908   0.30581   0.42581 
 C                    -4.7979   -0.32691   2.53827 
 C                    -7.07731   0.15703   0.98736 
 C                    -6.06575  -0.38122   3.12882 
 C                    -7.20782  -0.16456   2.34523 
 Ni                    0.00555   0.1815   -0.26237 
 C                    -2.74528  -4.44185  -1.21195 
 C                    -2.96199  -6.42788  -2.55272 
 H                    -1.58044  -4.60848  -3.0246 
 C                     2.64267  -4.50661  -1.19297 
 C                     2.82654  -6.492    -2.53899 
 H                     1.48901  -4.64146  -3.01674 
 F                     3.64457  -0.66692   3.29822 
 F                     6.12707  -0.7788    4.4942 
 F                     8.39454  -0.45917   2.96289 
 F                     8.17153   0.13226   0.28284 
 F                     5.68902   0.53458  -0.82737 
 F                     0.53159   4.23306  -3.25878 
 F                     0.43466   6.84474  -4.13633 
 F                     0.14024   8.89007  -2.3212 
 F                    -0.20187   8.31939   0.34687 
 F                    -0.39377   5.70564   1.18123 
 F                    -5.67055   0.65948  -0.86906 
 F                    -8.17317   0.31295   0.21704 
 F                    -8.43373  -0.2651    2.89718 
 F                    -6.18806  -0.63186   4.45036 
 F                    -3.69382  -0.57897   3.27704 
 H                     2.61977  -7.12971  -3.37102 
 H                    -2.76358  -7.07189  -3.38242 
 O                    -0.04129  -3.81909  -2.44618 
 C                     2.18305  -5.09303  -2.33391 
 C                    -2.28994  -5.04222  -2.34629 
 C                    -3.84959  -6.722    -1.56145 
 H                    -4.50038  -7.56538  -1.55142 
 S                    -3.79502  -5.51256  -0.28762 
 S                     3.66391  -5.59981  -0.26612 
 C                     3.70064  -6.8073   -1.54203 
 H                     4.33201  -7.66495  -1.52858 
 

 GradGradGradGradGradGradGradGradGradGradGradGradGradGradGradGradGradGrad
 Berny optimization.
 Initialization pass.
                           ----------------------------
                           !    Initial Parameters    !
                           ! (Angstroms and Degrees)  !
 --------------------------                            --------------------------
 ! Name  Definition              Value          Derivative Info.                !
 --------------------------------------------------------------------------------
 ! R1    R(1,17)                 1.3395         estimate D2E/DX2                !
 ! R2    R(1,24)                 1.3837         estimate D2E/DX2                !
 ! R3    R(1,27)                 1.4932         estimate D2E/DX2                !
 ! R4    R(2,18)                 1.3345         estimate D2E/DX2                !
 ! R5    R(2,20)                 1.5435         estimate D2E/DX2                !
 ! R6    R(2,30)                 1.3764         estimate D2E/DX2                !
 ! R7    R(3,4)                  1.5188         estimate D2E/DX2                !
 ! R8    R(3,15)                 1.0696         estimate D2E/DX2                !
 ! R9    R(3,20)                 1.343          estimate D2E/DX2                !
 ! R10   R(4,18)                 1.4814         estimate D2E/DX2                !
 ! R11   R(4,29)                 1.3353         estimate D2E/DX2                !
 ! R12   R(5,16)                 1.4427         estimate D2E/DX2                !
 ! R13   R(5,22)                 1.3842         estimate D2E/DX2                !
 ! R14   R(5,29)                 1.3599         estimate D2E/DX2                !
 ! R15   R(6,7)                  1.3854         estimate D2E/DX2                !
 ! R16   R(6,22)                 1.3807         estimate D2E/DX2                !
 ! R17   R(6,53)                 1.5188         estimate D2E/DX2                !
 ! R18   R(7,16)                 1.3351         estimate D2E/DX2                !
 ! R19   R(7,27)                 1.4888         estimate D2E/DX2                !
 ! R20   R(8,9)                  1.5395         estimate D2E/DX2                !
 ! R21   R(8,19)                 1.3574         estimate D2E/DX2                !
 ! R22   R(8,30)                 1.3811         estimate D2E/DX2                !
 ! R23   R(9,14)                 1.068          estimate D2E/DX2                !
 ! R24   R(9,25)                 1.3435         estimate D2E/DX2                !
 ! R25   R(10,11)                1.3884         estimate D2E/DX2                !
 ! R26   R(10,17)                1.4464         estimate D2E/DX2                !
 ! R27   R(10,28)                1.3607         estimate D2E/DX2                !
 ! R28   R(11,13)                1.0683         estimate D2E/DX2                !
 ! R29   R(11,24)                1.3815         estimate D2E/DX2                !
 ! R30   R(12,19)                1.4774         estimate D2E/DX2                !
 ! R31   R(12,25)                1.5235         estimate D2E/DX2                !
 ! R32   R(12,28)                1.3351         estimate D2E/DX2                !
 ! R33   R(16,49)                1.8647         estimate D2E/DX2                !
 ! R34   R(17,49)                1.8651         estimate D2E/DX2                !
 ! R35   R(18,49)                1.8676         estimate D2E/DX2                !
 ! R36   R(19,49)                1.8903         estimate D2E/DX2                !
 ! R37   R(20,21)                1.0672         estimate D2E/DX2                !
 ! R38   R(22,23)                1.0683         estimate D2E/DX2                !
 ! R39   R(24,50)                1.5211         estimate D2E/DX2                !
 ! R40   R(25,26)                1.068          estimate D2E/DX2                !
 ! R41   R(27,73)                1.2603         estimate D2E/DX2                !
 ! R42   R(28,43)                1.5225         estimate D2E/DX2                !
 ! R43   R(29,31)                1.527          estimate D2E/DX2                !
 ! R44   R(30,37)                1.5409         estimate D2E/DX2                !
 ! R45   R(31,32)                1.389          estimate D2E/DX2                !
 ! R46   R(31,33)                1.4039         estimate D2E/DX2                !
 ! R47   R(32,34)                1.3951         estimate D2E/DX2                !
 ! R48   R(32,60)                1.3487         estimate D2E/DX2                !
 ! R49   R(33,35)                1.4013         estimate D2E/DX2                !
 ! R50   R(33,56)                1.3524         estimate D2E/DX2                !
 ! R51   R(34,36)                1.4014         estimate D2E/DX2                !
 ! R52   R(34,59)                1.3482         estimate D2E/DX2                !
 ! R53   R(35,36)                1.4016         estimate D2E/DX2                !
 ! R54   R(35,57)                1.3511         estimate D2E/DX2                !
 ! R55   R(36,58)                1.3486         estimate D2E/DX2                !
 ! R56   R(37,38)                1.4103         estimate D2E/DX2                !
 ! R57   R(37,39)                1.394          estimate D2E/DX2                !
 ! R58   R(38,40)                1.4049         estimate D2E/DX2                !
 ! R59   R(38,61)                1.3515         estimate D2E/DX2                !
 ! R60   R(39,41)                1.4002         estimate D2E/DX2                !
 ! R61   R(39,65)                1.3488         estimate D2E/DX2                !
 ! R62   R(40,42)                1.4004         estimate D2E/DX2                !
 ! R63   R(40,62)                1.3514         estimate D2E/DX2                !
 ! R64   R(41,42)                1.4003         estimate D2E/DX2                !
 ! R65   R(41,64)                1.3493         estimate D2E/DX2                !
 ! R66   R(42,63)                1.3503         estimate D2E/DX2                !
 ! R67   R(43,44)                1.3891         estimate D2E/DX2                !
 ! R68   R(43,45)                1.401          estimate D2E/DX2                !
 ! R69   R(44,46)                1.3949         estimate D2E/DX2                !
 ! R70   R(44,66)                1.3494         estimate D2E/DX2                !
 ! R71   R(45,47)                1.3997         estimate D2E/DX2                !
 ! R72   R(45,70)                1.3522         estimate D2E/DX2                !
 ! R73   R(46,48)                1.4015         estimate D2E/DX2                !
 ! R74   R(46,67)                1.3486         estimate D2E/DX2                !
 ! R75   R(47,48)                1.4019         estimate D2E/DX2                !
 ! R76   R(47,69)                1.3506         estimate D2E/DX2                !
 ! R77   R(48,68)                1.3482         estimate D2E/DX2                !
 ! R78   R(50,75)                1.3618         estimate D2E/DX2                !
 ! R79   R(50,78)                1.7615         estimate D2E/DX2                !
 ! R80   R(51,72)                1.0689         estimate D2E/DX2                !
 ! R81   R(51,75)                1.5538         estimate D2E/DX2                !
 ! R82   R(51,76)                1.3627         estimate D2E/DX2                !
 ! R83   R(52,75)                1.0731         estimate D2E/DX2                !
 ! R84   R(53,74)                1.3627         estimate D2E/DX2                !
 ! R85   R(53,79)                1.7598         estimate D2E/DX2                !
 ! R86   R(54,71)                1.0685         estimate D2E/DX2                !
 ! R87   R(54,74)                1.5535         estimate D2E/DX2                !
 ! R88   R(54,80)                1.3629         estimate D2E/DX2                !
 ! R89   R(55,74)                1.0733         estimate D2E/DX2                !
 ! R90   R(76,77)                1.0653         estimate D2E/DX2                !
 ! R91   R(76,78)                1.7574         estimate D2E/DX2                !
 ! R92   R(79,80)                1.7571         estimate D2E/DX2                !
 ! R93   R(80,81)                1.0651         estimate D2E/DX2                !
 ! A1    A(17,1,24)            110.6473         estimate D2E/DX2                !
 ! A2    A(17,1,27)            125.4021         estimate D2E/DX2                !
 ! A3    A(24,1,27)            123.8527         estimate D2E/DX2                !
 ! A4    A(18,2,20)            110.1629         estimate D2E/DX2                !
 ! A5    A(18,2,30)            127.2673         estimate D2E/DX2                !
 ! A6    A(20,2,30)            122.4022         estimate D2E/DX2                !
 ! A7    A(4,3,15)             126.5917         estimate D2E/DX2                !
 ! A8    A(4,3,20)             106.4821         estimate D2E/DX2                !
 ! A9    A(15,3,20)            126.9253         estimate D2E/DX2                !
 ! A10   A(3,4,18)             108.019          estimate D2E/DX2                !
 ! A11   A(3,4,29)             125.7631         estimate D2E/DX2                !
 ! A12   A(18,4,29)            126.2006         estimate D2E/DX2                !
 ! A13   A(16,5,22)            108.1809         estimate D2E/DX2                !
 ! A14   A(16,5,29)            127.033          estimate D2E/DX2                !
 ! A15   A(22,5,29)            124.5031         estimate D2E/DX2                !
 ! A16   A(7,6,22)             108.5179         estimate D2E/DX2                !
 ! A17   A(7,6,53)             126.8094         estimate D2E/DX2                !
 ! A18   A(22,6,53)            124.6314         estimate D2E/DX2                !
 ! A19   A(6,7,16)             110.3295         estimate D2E/DX2                !
 ! A20   A(6,7,27)             124.1765         estimate D2E/DX2                !
 ! A21   A(16,7,27)            125.453          estimate D2E/DX2                !
 ! A22   A(9,8,19)             110.2903         estimate D2E/DX2                !
 ! A23   A(9,8,30)             124.5462         estimate D2E/DX2                !
 ! A24   A(19,8,30)            125.1563         estimate D2E/DX2                !
 ! A25   A(8,9,14)             125.7092         estimate D2E/DX2                !
 ! A26   A(8,9,25)             108.2271         estimate D2E/DX2                !
 ! A27   A(14,9,25)            126.0611         estimate D2E/DX2                !
 ! A28   A(11,10,17)           107.9393         estimate D2E/DX2                !
 ! A29   A(11,10,28)           124.7526         estimate D2E/DX2                !
 ! A30   A(17,10,28)           127.152          estimate D2E/DX2                !
 ! A31   A(10,11,13)           127.2305         estimate D2E/DX2                !
 ! A32   A(10,11,24)           106.5102         estimate D2E/DX2                !
 ! A33   A(13,11,24)           126.2367         estimate D2E/DX2                !
 ! A34   A(19,12,25)           108.2653         estimate D2E/DX2                !
 ! A35   A(19,12,28)           125.8922         estimate D2E/DX2                !
 ! A36   A(25,12,28)           125.8361         estimate D2E/DX2                !
 ! A37   A(5,16,7)             105.8044         estimate D2E/DX2                !
 ! A38   A(5,16,49)            125.8828         estimate D2E/DX2                !
 ! A39   A(7,16,49)            128.2847         estimate D2E/DX2                !
 ! A40   A(1,17,10)            105.59           estimate D2E/DX2                !
 ! A41   A(1,17,49)            128.0487         estimate D2E/DX2                !
 ! A42   A(10,17,49)           126.3432         estimate D2E/DX2                !
 ! A43   A(2,18,4)             106.7675         estimate D2E/DX2                !
 ! A44   A(2,18,49)            127.0301         estimate D2E/DX2                !
 ! A45   A(4,18,49)            126.1257         estimate D2E/DX2                !
 ! A46   A(8,19,12)            106.2251         estimate D2E/DX2                !
 ! A47   A(8,19,49)            127.2351         estimate D2E/DX2                !
 ! A48   A(12,19,49)           126.5351         estimate D2E/DX2                !
 ! A49   A(2,20,3)             108.2714         estimate D2E/DX2                !
 ! A50   A(2,20,21)            125.8099         estimate D2E/DX2                !
 ! A51   A(3,20,21)            125.8929         estimate D2E/DX2                !
 ! A52   A(5,22,6)             106.2481         estimate D2E/DX2                !
 ! A53   A(5,22,23)            127.2756         estimate D2E/DX2                !
 ! A54   A(6,22,23)            126.4679         estimate D2E/DX2                !
 ! A55   A(1,24,11)            108.3468         estimate D2E/DX2                !
 ! A56   A(1,24,50)            126.8425         estimate D2E/DX2                !
 ! A57   A(11,24,50)           124.7798         estimate D2E/DX2                !
 ! A58   A(9,25,12)            106.8371         estimate D2E/DX2                !
 ! A59   A(9,25,26)            126.6819         estimate D2E/DX2                !
 ! A60   A(12,25,26)           126.4809         estimate D2E/DX2                !
 ! A61   A(1,27,7)             109.6579         estimate D2E/DX2                !
 ! A62   A(1,27,73)            125.0366         estimate D2E/DX2                !
 ! A63   A(7,27,73)            125.0756         estimate D2E/DX2                !
 ! A64   A(10,28,12)           118.569          estimate D2E/DX2                !
 ! A65   A(10,28,43)           119.5546         estimate D2E/DX2                !
 ! A66   A(12,28,43)           121.8379         estimate D2E/DX2                !
 ! A67   A(4,29,5)             118.1028         estimate D2E/DX2                !
 ! A68   A(4,29,31)            122.2994         estimate D2E/DX2                !
 ! A69   A(5,29,31)            119.5748         estimate D2E/DX2                !
 ! A70   A(2,30,8)             117.8158         estimate D2E/DX2                !
 ! A71   A(2,30,37)            120.9431         estimate D2E/DX2                !
 ! A72   A(8,30,37)            121.175          estimate D2E/DX2                !
 ! A73   A(29,31,32)           117.8905         estimate D2E/DX2                !
 ! A74   A(29,31,33)           121.4956         estimate D2E/DX2                !
 ! A75   A(32,31,33)           120.6117         estimate D2E/DX2                !
 ! A76   A(31,32,34)           119.8554         estimate D2E/DX2                !
 ! A77   A(31,32,60)           119.5748         estimate D2E/DX2                !
 ! A78   A(34,32,60)           120.5213         estimate D2E/DX2                !
 ! A79   A(31,33,35)           119.492          estimate D2E/DX2                !
 ! A80   A(31,33,56)           120.4608         estimate D2E/DX2                !
 ! A81   A(35,33,56)           120.0102         estimate D2E/DX2                !
 ! A82   A(32,34,36)           120.002          estimate D2E/DX2                !
 ! A83   A(32,34,59)           119.7194         estimate D2E/DX2                !
 ! A84   A(36,34,59)           120.2763         estimate D2E/DX2                !
 ! A85   A(33,35,36)           119.7349         estimate D2E/DX2                !
 ! A86   A(33,35,57)           120.1994         estimate D2E/DX2                !
 ! A87   A(36,35,57)           120.0642         estimate D2E/DX2                !
 ! A88   A(34,36,35)           120.0589         estimate D2E/DX2                !
 ! A89   A(34,36,58)           119.8815         estimate D2E/DX2                !
 ! A90   A(35,36,58)           120.0597         estimate D2E/DX2                !
 ! A91   A(30,37,38)           120.6676         estimate D2E/DX2                !
 ! A92   A(30,37,39)           119.4272         estimate D2E/DX2                !
 ! A93   A(38,37,39)           119.9052         estimate D2E/DX2                !
 ! A94   A(37,38,40)           119.7549         estimate D2E/DX2                !
 ! A95   A(37,38,61)           120.4416         estimate D2E/DX2                !
 ! A96   A(40,38,61)           119.7622         estimate D2E/DX2                !
 ! A97   A(37,39,41)           120.1154         estimate D2E/DX2                !
 ! A98   A(37,39,65)           119.6774         estimate D2E/DX2                !
 ! A99   A(41,39,65)           120.166          estimate D2E/DX2                !
 ! A100  A(38,40,42)           119.9083         estimate D2E/DX2                !
 ! A101  A(38,40,62)           120.2424         estimate D2E/DX2                !
 ! A102  A(42,40,62)           119.8476         estimate D2E/DX2                !
 ! A103  A(39,41,42)           120.1528         estimate D2E/DX2                !
 ! A104  A(39,41,64)           119.8634         estimate D2E/DX2                !
 ! A105  A(42,41,64)           119.9818         estimate D2E/DX2                !
 ! A106  A(40,42,41)           119.9381         estimate D2E/DX2                !
 ! A107  A(40,42,63)           120.0827         estimate D2E/DX2                !
 ! A108  A(41,42,63)           119.9791         estimate D2E/DX2                !
 ! A109  A(28,43,44)           118.3164         estimate D2E/DX2                !
 ! A110  A(28,43,45)           120.8797         estimate D2E/DX2                !
 ! A111  A(44,43,45)           120.8023         estimate D2E/DX2                !
 ! A112  A(43,44,46)           119.7428         estimate D2E/DX2                !
 ! A113  A(43,44,66)           119.706          estimate D2E/DX2                !
 ! A114  A(46,44,66)           120.5021         estimate D2E/DX2                !
 ! A115  A(43,45,47)           119.4444         estimate D2E/DX2                !
 ! A116  A(43,45,70)           120.3929         estimate D2E/DX2                !
 ! A117  A(47,45,70)           120.1238         estimate D2E/DX2                !
 ! A118  A(44,46,48)           119.9442         estimate D2E/DX2                !
 ! A119  A(44,46,67)           119.7698         estimate D2E/DX2                !
 ! A120  A(48,46,67)           120.2838         estimate D2E/DX2                !
 ! A121  A(45,47,48)           119.7422         estimate D2E/DX2                !
 ! A122  A(45,47,69)           120.1358         estimate D2E/DX2                !
 ! A123  A(48,47,69)           120.1203         estimate D2E/DX2                !
 ! A124  A(46,48,47)           120.0759         estimate D2E/DX2                !
 ! A125  A(46,48,68)           119.897          estimate D2E/DX2                !
 ! A126  A(47,48,68)           120.0271         estimate D2E/DX2                !
 ! A127  A(16,49,17)            89.9849         estimate D2E/DX2                !
 ! A128  A(16,49,18)            90.0153         estimate D2E/DX2                !
 ! A129  A(17,49,19)            89.8577         estimate D2E/DX2                !
 ! A130  A(18,49,19)            90.1421         estimate D2E/DX2                !
 ! A131  A(24,50,75)           126.9538         estimate D2E/DX2                !
 ! A132  A(24,50,78)           121.4302         estimate D2E/DX2                !
 ! A133  A(75,50,78)           111.6158         estimate D2E/DX2                !
 ! A134  A(72,51,75)           124.0659         estimate D2E/DX2                !
 ! A135  A(72,51,76)           123.7462         estimate D2E/DX2                !
 ! A136  A(75,51,76)           112.1825         estimate D2E/DX2                !
 ! A137  A(6,53,74)            126.7718         estimate D2E/DX2                !
 ! A138  A(6,53,79)            121.5515         estimate D2E/DX2                !
 ! A139  A(74,53,79)           111.6764         estimate D2E/DX2                !
 ! A140  A(71,54,74)           124.0633         estimate D2E/DX2                !
 ! A141  A(71,54,80)           123.7563         estimate D2E/DX2                !
 ! A142  A(74,54,80)           112.1756         estimate D2E/DX2                !
 ! A143  A(53,74,54)           110.9998         estimate D2E/DX2                !
 ! A144  A(53,74,55)           124.7325         estimate D2E/DX2                !
 ! A145  A(54,74,55)           124.2487         estimate D2E/DX2                !
 ! A146  A(50,75,51)           111.0513         estimate D2E/DX2                !
 ! A147  A(50,75,52)           124.707          estimate D2E/DX2                !
 ! A148  A(51,75,52)           124.2234         estimate D2E/DX2                !
 ! A149  A(51,76,77)           125.143          estimate D2E/DX2                !
 ! A150  A(51,76,78)           111.0086         estimate D2E/DX2                !
 ! A151  A(77,76,78)           123.8469         estimate D2E/DX2                !
 ! A152  A(50,78,76)            93.2375         estimate D2E/DX2                !
 ! A153  A(53,79,80)            93.244          estimate D2E/DX2                !
 ! A154  A(54,80,79)           111.0263         estimate D2E/DX2                !
 ! A155  A(54,80,81)           125.1511         estimate D2E/DX2                !
 ! A156  A(79,80,81)           123.8216         estimate D2E/DX2                !
 ! A157  L(16,49,19,18,-1)     180.1574         estimate D2E/DX2                !
 ! A158  L(17,49,18,19,-1)     179.9998         estimate D2E/DX2                !
 ! A159  L(16,49,19,18,-2)     182.2159         estimate D2E/DX2                !
 ! A160  L(17,49,18,19,-2)     179.9999         estimate D2E/DX2                !
 ! D1    D(24,1,17,10)          -3.0997         estimate D2E/DX2                !
 ! D2    D(24,1,17,49)         175.417          estimate D2E/DX2                !
 ! D3    D(27,1,17,10)        -179.6058         estimate D2E/DX2                !
 ! D4    D(27,1,17,49)          -1.089          estimate D2E/DX2                !
 ! D5    D(17,1,24,11)          -3.1449         estimate D2E/DX2                !
 ! D6    D(17,1,24,50)         178.8123         estimate D2E/DX2                !
 ! D7    D(27,1,24,11)         173.4258         estimate D2E/DX2                !
 ! D8    D(27,1,24,50)          -4.617          estimate D2E/DX2                !
 ! D9    D(17,1,27,7)           31.477          estimate D2E/DX2                !
 ! D10   D(17,1,27,73)        -153.8089         estimate D2E/DX2                !
 ! D11   D(24,1,27,7)         -144.5854         estimate D2E/DX2                !
 ! D12   D(24,1,27,73)          30.1288         estimate D2E/DX2                !
 ! D13   D(20,2,18,4)            2.8054         estimate D2E/DX2                !
 ! D14   D(20,2,18,49)         179.7578         estimate D2E/DX2                !
 ! D15   D(30,2,18,4)         -172.5369         estimate D2E/DX2                !
 ! D16   D(30,2,18,49)           4.4155         estimate D2E/DX2                !
 ! D17   D(18,2,20,3)           -5.4627         estimate D2E/DX2                !
 ! D18   D(18,2,20,21)         176.2995         estimate D2E/DX2                !
 ! D19   D(30,2,20,3)          170.1476         estimate D2E/DX2                !
 ! D20   D(30,2,20,21)          -8.0902         estimate D2E/DX2                !
 ! D21   D(18,2,30,8)           17.7371         estimate D2E/DX2                !
 ! D22   D(18,2,30,37)        -165.1856         estimate D2E/DX2                !
 ! D23   D(20,2,30,8)         -157.083          estimate D2E/DX2                !
 ! D24   D(20,2,30,37)          19.9943         estimate D2E/DX2                !
 ! D25   D(15,3,4,18)          175.8515         estimate D2E/DX2                !
 ! D26   D(15,3,4,29)           -2.7062         estimate D2E/DX2                !
 ! D27   D(20,3,4,18)           -3.8086         estimate D2E/DX2                !
 ! D28   D(20,3,4,29)          177.6337         estimate D2E/DX2                !
 ! D29   D(4,3,20,2)             5.3119         estimate D2E/DX2                !
 ! D30   D(4,3,20,21)         -176.4521         estimate D2E/DX2                !
 ! D31   D(15,3,20,2)         -174.3467         estimate D2E/DX2                !
 ! D32   D(15,3,20,21)           3.8893         estimate D2E/DX2                !
 ! D33   D(3,4,18,2)             0.3802         estimate D2E/DX2                !
 ! D34   D(3,4,18,49)         -176.6077         estimate D2E/DX2                !
 ! D35   D(29,4,18,2)          178.9298         estimate D2E/DX2                !
 ! D36   D(29,4,18,49)           1.9419         estimate D2E/DX2                !
 ! D37   D(3,4,29,5)          -164.8852         estimate D2E/DX2                !
 ! D38   D(3,4,29,31)           13.3613         estimate D2E/DX2                !
 ! D39   D(18,4,29,5)           16.8145         estimate D2E/DX2                !
 ! D40   D(18,4,29,31)        -164.939          estimate D2E/DX2                !
 ! D41   D(22,5,16,7)           -7.6286         estimate D2E/DX2                !
 ! D42   D(22,5,16,49)         170.5718         estimate D2E/DX2                !
 ! D43   D(29,5,16,7)          166.4373         estimate D2E/DX2                !
 ! D44   D(29,5,16,49)         -15.3623         estimate D2E/DX2                !
 ! D45   D(16,5,22,6)            9.8091         estimate D2E/DX2                !
 ! D46   D(16,5,22,23)        -171.1994         estimate D2E/DX2                !
 ! D47   D(29,5,22,6)         -164.4433         estimate D2E/DX2                !
 ! D48   D(29,5,22,23)          14.5482         estimate D2E/DX2                !
 ! D49   D(16,5,29,4)          -10.2325         estimate D2E/DX2                !
 ! D50   D(16,5,29,31)         171.4717         estimate D2E/DX2                !
 ! D51   D(22,5,29,4)          162.9222         estimate D2E/DX2                !
 ! D52   D(22,5,29,31)         -15.3736         estimate D2E/DX2                !
 ! D53   D(22,6,7,16)            3.7399         estimate D2E/DX2                !
 ! D54   D(22,6,7,27)         -174.0408         estimate D2E/DX2                !
 ! D55   D(53,6,7,16)         -178.523          estimate D2E/DX2                !
 ! D56   D(53,6,7,27)            3.6962         estimate D2E/DX2                !
 ! D57   D(7,6,22,5)            -8.4053         estimate D2E/DX2                !
 ! D58   D(7,6,22,23)          172.5926         estimate D2E/DX2                !
 ! D59   D(53,6,22,5)          173.7966         estimate D2E/DX2                !
 ! D60   D(53,6,22,23)          -5.2056         estimate D2E/DX2                !
 ! D61   D(7,6,53,74)           33.4269         estimate D2E/DX2                !
 ! D62   D(7,6,53,79)         -146.8061         estimate D2E/DX2                !
 ! D63   D(22,6,53,74)        -149.1812         estimate D2E/DX2                !
 ! D64   D(22,6,53,79)          30.5858         estimate D2E/DX2                !
 ! D65   D(6,7,16,5)             2.3638         estimate D2E/DX2                !
 ! D66   D(6,7,16,49)         -175.7786         estimate D2E/DX2                !
 ! D67   D(27,7,16,5)         -179.8901         estimate D2E/DX2                !
 ! D68   D(27,7,16,49)           1.9675         estimate D2E/DX2                !
 ! D69   D(6,7,27,1)           145.498          estimate D2E/DX2                !
 ! D70   D(6,7,27,73)          -29.2136         estimate D2E/DX2                !
 ! D71   D(16,7,27,1)          -31.9472         estimate D2E/DX2                !
 ! D72   D(16,7,27,73)         153.3412         estimate D2E/DX2                !
 ! D73   D(19,8,9,14)         -176.6353         estimate D2E/DX2                !
 ! D74   D(19,8,9,25)            3.9199         estimate D2E/DX2                !
 ! D75   D(30,8,9,14)            2.4382         estimate D2E/DX2                !
 ! D76   D(30,8,9,25)         -177.0065         estimate D2E/DX2                !
 ! D77   D(9,8,19,12)           -1.9818         estimate D2E/DX2                !
 ! D78   D(9,8,19,49)          178.7644         estimate D2E/DX2                !
 ! D79   D(30,8,19,12)         178.9516         estimate D2E/DX2                !
 ! D80   D(30,8,19,49)          -0.3023         estimate D2E/DX2                !
 ! D81   D(9,8,30,2)           161.554          estimate D2E/DX2                !
 ! D82   D(9,8,30,37)          -15.5162         estimate D2E/DX2                !
 ! D83   D(19,8,30,2)          -19.5088         estimate D2E/DX2                !
 ! D84   D(19,8,30,37)         163.421          estimate D2E/DX2                !
 ! D85   D(8,9,25,12)           -3.8603         estimate D2E/DX2                !
 ! D86   D(8,9,25,26)          176.0607         estimate D2E/DX2                !
 ! D87   D(14,9,25,12)         176.6975         estimate D2E/DX2                !
 ! D88   D(14,9,25,26)          -3.3816         estimate D2E/DX2                !
 ! D89   D(17,10,11,13)        171.5661         estimate D2E/DX2                !
 ! D90   D(17,10,11,24)        -10.0876         estimate D2E/DX2                !
 ! D91   D(28,10,11,13)        -12.7037         estimate D2E/DX2                !
 ! D92   D(28,10,11,24)        165.6426         estimate D2E/DX2                !
 ! D93   D(11,10,17,1)           8.2187         estimate D2E/DX2                !
 ! D94   D(11,10,17,49)       -170.3312         estimate D2E/DX2                !
 ! D95   D(28,10,17,1)        -167.3796         estimate D2E/DX2                !
 ! D96   D(28,10,17,49)         14.0705         estimate D2E/DX2                !
 ! D97   D(11,10,28,12)       -164.7712         estimate D2E/DX2                !
 ! D98   D(11,10,28,43)         13.013          estimate D2E/DX2                !
 ! D99   D(17,10,28,12)         10.1301         estimate D2E/DX2                !
 ! D100  D(17,10,28,43)       -172.0856         estimate D2E/DX2                !
 ! D101  D(10,11,24,1)           8.2434         estimate D2E/DX2                !
 ! D102  D(10,11,24,50)       -173.6636         estimate D2E/DX2                !
 ! D103  D(13,11,24,1)        -173.3891         estimate D2E/DX2                !
 ! D104  D(13,11,24,50)          4.7039         estimate D2E/DX2                !
 ! D105  D(25,12,19,8)          -0.3307         estimate D2E/DX2                !
 ! D106  D(25,12,19,49)        178.93           estimate D2E/DX2                !
 ! D107  D(28,12,19,8)        -179.4484         estimate D2E/DX2                !
 ! D108  D(28,12,19,49)         -0.1877         estimate D2E/DX2                !
 ! D109  D(19,12,25,9)           2.7968         estimate D2E/DX2                !
 ! D110  D(19,12,25,26)       -177.1244         estimate D2E/DX2                !
 ! D111  D(28,12,25,9)        -178.0849         estimate D2E/DX2                !
 ! D112  D(28,12,25,26)          1.9939         estimate D2E/DX2                !
 ! D113  D(19,12,28,10)        -16.8096         estimate D2E/DX2                !
 ! D114  D(19,12,28,43)        165.4593         estimate D2E/DX2                !
 ! D115  D(25,12,28,10)        164.2239         estimate D2E/DX2                !
 ! D116  D(25,12,28,43)        -13.5072         estimate D2E/DX2                !
 ! D117  D(5,16,49,17)        -154.8724         estimate D2E/DX2                !
 ! D118  D(5,16,49,18)          25.1276         estimate D2E/DX2                !
 ! D119  D(7,16,49,17)          22.9214         estimate D2E/DX2                !
 ! D120  D(7,16,49,18)        -157.0786         estimate D2E/DX2                !
 ! D121  D(1,17,49,16)         -23.258          estimate D2E/DX2                !
 ! D122  D(1,17,49,19)         158.9579         estimate D2E/DX2                !
 ! D123  D(10,17,49,16)        154.9682         estimate D2E/DX2                !
 ! D124  D(10,17,49,19)        -22.8159         estimate D2E/DX2                !
 ! D125  D(2,18,49,16)         164.3895         estimate D2E/DX2                !
 ! D126  D(2,18,49,19)         -17.8264         estimate D2E/DX2                !
 ! D127  D(4,18,49,16)         -19.2239         estimate D2E/DX2                !
 ! D128  D(4,18,49,19)         158.5603         estimate D2E/DX2                !
 ! D129  D(8,19,49,17)        -164.1022         estimate D2E/DX2                !
 ! D130  D(8,19,49,18)          15.8978         estimate D2E/DX2                !
 ! D131  D(12,19,49,17)         16.7894         estimate D2E/DX2                !
 ! D132  D(12,19,49,18)       -163.2105         estimate D2E/DX2                !
 ! D133  D(1,24,50,75)         -32.7585         estimate D2E/DX2                !
 ! D134  D(1,24,50,78)         147.0945         estimate D2E/DX2                !
 ! D135  D(11,24,50,75)        149.5034         estimate D2E/DX2                !
 ! D136  D(11,24,50,78)        -30.6436         estimate D2E/DX2                !
 ! D137  D(10,28,43,44)       -100.3567         estimate D2E/DX2                !
 ! D138  D(10,28,43,45)         79.1971         estimate D2E/DX2                !
 ! D139  D(12,28,43,44)         77.3527         estimate D2E/DX2                !
 ! D140  D(12,28,43,45)       -103.0936         estimate D2E/DX2                !
 ! D141  D(4,29,31,32)         -76.1283         estimate D2E/DX2                !
 ! D142  D(4,29,31,33)         104.4119         estimate D2E/DX2                !
 ! D143  D(5,29,31,32)         102.0932         estimate D2E/DX2                !
 ! D144  D(5,29,31,33)         -77.3666         estimate D2E/DX2                !
 ! D145  D(2,30,37,38)          77.5606         estimate D2E/DX2                !
 ! D146  D(2,30,37,39)        -102.443          estimate D2E/DX2                !
 ! D147  D(8,30,37,38)        -105.4607         estimate D2E/DX2                !
 ! D148  D(8,30,37,39)          74.5356         estimate D2E/DX2                !
 ! D149  D(29,31,32,34)       -176.3988         estimate D2E/DX2                !
 ! D150  D(29,31,32,60)          1.0832         estimate D2E/DX2                !
 ! D151  D(33,31,32,34)          3.0661         estimate D2E/DX2                !
 ! D152  D(33,31,32,60)       -179.452          estimate D2E/DX2                !
 ! D153  D(29,31,33,35)       -179.018          estimate D2E/DX2                !
 ! D154  D(29,31,33,56)         -1.2303         estimate D2E/DX2                !
 ! D155  D(32,31,33,35)          1.5368         estimate D2E/DX2                !
 ! D156  D(32,31,33,56)        179.3245         estimate D2E/DX2                !
 ! D157  D(31,32,34,36)         -4.8613         estimate D2E/DX2                !
 ! D158  D(31,32,34,59)        174.591          estimate D2E/DX2                !
 ! D159  D(60,32,34,36)        177.6809         estimate D2E/DX2                !
 ! D160  D(60,32,34,59)         -2.8668         estimate D2E/DX2                !
 ! D161  D(31,33,35,36)         -4.3217         estimate D2E/DX2                !
 ! D162  D(31,33,35,57)        175.2341         estimate D2E/DX2                !
 ! D163  D(56,33,35,36)        177.8805         estimate D2E/DX2                !
 ! D164  D(56,33,35,57)         -2.5637         estimate D2E/DX2                !
 ! D165  D(32,34,36,35)          2.0618         estimate D2E/DX2                !
 ! D166  D(32,34,36,58)       -177.9443         estimate D2E/DX2                !
 ! D167  D(59,34,36,35)       -177.3874         estimate D2E/DX2                !
 ! D168  D(59,34,36,58)          2.6065         estimate D2E/DX2                !
 ! D169  D(33,35,36,34)          2.5426         estimate D2E/DX2                !
 ! D170  D(33,35,36,58)       -177.4513         estimate D2E/DX2                !
 ! D171  D(57,35,36,34)       -177.0138         estimate D2E/DX2                !
 ! D172  D(57,35,36,58)          2.9923         estimate D2E/DX2                !
 ! D173  D(30,37,38,40)        177.9227         estimate D2E/DX2                !
 ! D174  D(30,37,38,61)          0.2666         estimate D2E/DX2                !
 ! D175  D(39,37,38,40)         -2.0736         estimate D2E/DX2                !
 ! D176  D(39,37,38,61)       -179.7297         estimate D2E/DX2                !
 ! D177  D(30,37,39,41)        177.6285         estimate D2E/DX2                !
 ! D178  D(30,37,39,65)         -0.0411         estimate D2E/DX2                !
 ! D179  D(38,37,39,41)         -2.3751         estimate D2E/DX2                !
 ! D180  D(38,37,39,65)        179.9553         estimate D2E/DX2                !
 ! D181  D(37,38,40,42)          4.3869         estimate D2E/DX2                !
 ! D182  D(37,38,40,62)       -175.1401         estimate D2E/DX2                !
 ! D183  D(61,38,40,42)       -177.941          estimate D2E/DX2                !
 ! D184  D(61,38,40,62)          2.532          estimate D2E/DX2                !
 ! D185  D(37,39,41,42)          4.5283         estimate D2E/DX2                !
 ! D186  D(37,39,41,64)       -174.9638         estimate D2E/DX2                !
 ! D187  D(65,39,41,42)       -177.8135         estimate D2E/DX2                !
 ! D188  D(65,39,41,64)          2.6943         estimate D2E/DX2                !
 ! D189  D(38,40,42,41)         -2.2586         estimate D2E/DX2                !
 ! D190  D(38,40,42,63)        177.734          estimate D2E/DX2                !
 ! D191  D(62,40,42,41)        177.2703         estimate D2E/DX2                !
 ! D192  D(62,40,42,63)         -2.7371         estimate D2E/DX2                !
 ! D193  D(39,41,42,40)         -2.1988         estimate D2E/DX2                !
 ! D194  D(39,41,42,63)        177.8086         estimate D2E/DX2                !
 ! D195  D(64,41,42,40)        177.2928         estimate D2E/DX2                !
 ! D196  D(64,41,42,63)         -2.6998         estimate D2E/DX2                !
 ! D197  D(28,43,44,46)        176.7465         estimate D2E/DX2                !
 ! D198  D(28,43,44,66)         -0.7187         estimate D2E/DX2                !
 ! D199  D(45,43,44,46)         -2.8076         estimate D2E/DX2                !
 ! D200  D(45,43,44,66)        179.7272         estimate D2E/DX2                !
 ! D201  D(28,43,45,47)        178.6072         estimate D2E/DX2                !
 ! D202  D(28,43,45,70)          0.872          estimate D2E/DX2                !
 ! D203  D(44,43,45,47)         -1.8502         estimate D2E/DX2                !
 ! D204  D(44,43,45,70)       -179.5854         estimate D2E/DX2                !
 ! D205  D(43,44,46,48)          4.8014         estimate D2E/DX2                !
 ! D206  D(43,44,46,67)       -174.6608         estimate D2E/DX2                !
 ! D207  D(66,44,46,48)       -177.7539         estimate D2E/DX2                !
 ! D208  D(66,44,46,67)          2.7839         estimate D2E/DX2                !
 ! D209  D(43,45,47,48)          4.4845         estimate D2E/DX2                !
 ! D210  D(43,45,47,69)       -175.041          estimate D2E/DX2                !
 ! D211  D(70,45,47,48)       -177.774          estimate D2E/DX2                !
 ! D212  D(70,45,47,69)          2.7004         estimate D2E/DX2                !
 ! D213  D(44,46,48,47)         -2.157          estimate D2E/DX2                !
 ! D214  D(44,46,48,68)        177.8312         estimate D2E/DX2                !
 ! D215  D(67,46,48,47)        177.3024         estimate D2E/DX2                !
 ! D216  D(67,46,48,68)         -2.7094         estimate D2E/DX2                !
 ! D217  D(45,47,48,46)         -2.5052         estimate D2E/DX2                !
 ! D218  D(45,47,48,68)        177.5066         estimate D2E/DX2                !
 ! D219  D(69,47,48,46)        177.0205         estimate D2E/DX2                !
 ! D220  D(69,47,48,68)         -2.9678         estimate D2E/DX2                !
 ! D221  D(24,50,75,51)       -173.8659         estimate D2E/DX2                !
 ! D222  D(24,50,75,52)          4.6274         estimate D2E/DX2                !
 ! D223  D(78,50,75,51)          6.2691         estimate D2E/DX2                !
 ! D224  D(78,50,75,52)       -175.2377         estimate D2E/DX2                !
 ! D225  D(24,50,78,76)        171.4646         estimate D2E/DX2                !
 ! D226  D(75,50,78,76)         -8.6618         estimate D2E/DX2                !
 ! D227  D(72,51,75,50)        179.3614         estimate D2E/DX2                !
 ! D228  D(72,51,75,52)          0.8595         estimate D2E/DX2                !
 ! D229  D(76,51,75,50)          0.1811         estimate D2E/DX2                !
 ! D230  D(76,51,75,52)       -178.3208         estimate D2E/DX2                !
 ! D231  D(72,51,76,77)         -6.1335         estimate D2E/DX2                !
 ! D232  D(72,51,76,78)        174.2855         estimate D2E/DX2                !
 ! D233  D(75,51,76,77)        173.0499         estimate D2E/DX2                !
 ! D234  D(75,51,76,78)         -6.5311         estimate D2E/DX2                !
 ! D235  D(6,53,74,54)         173.674          estimate D2E/DX2                !
 ! D236  D(6,53,74,55)          -4.7972         estimate D2E/DX2                !
 ! D237  D(79,53,74,54)         -6.1123         estimate D2E/DX2                !
 ! D238  D(79,53,74,55)        175.4164         estimate D2E/DX2                !
 ! D239  D(6,53,79,80)        -171.2904         estimate D2E/DX2                !
 ! D240  D(74,53,79,80)          8.5088         estimate D2E/DX2                !
 ! D241  D(71,54,74,53)       -179.4919         estimate D2E/DX2                !
 ! D242  D(71,54,74,55)         -1.0118         estimate D2E/DX2                !
 ! D243  D(80,54,74,53)         -0.2669         estimate D2E/DX2                !
 ! D244  D(80,54,74,55)        178.2131         estimate D2E/DX2                !
 ! D245  D(71,54,80,79)       -174.2744         estimate D2E/DX2                !
 ! D246  D(71,54,80,81)          6.0814         estimate D2E/DX2                !
 ! D247  D(74,54,80,79)          6.4978         estimate D2E/DX2                !
 ! D248  D(74,54,80,81)       -173.1464         estimate D2E/DX2                !
 ! D249  D(51,76,78,50)          8.6917         estimate D2E/DX2                !
 ! D250  D(77,76,78,50)       -170.8958         estimate D2E/DX2                !
 ! D251  D(53,79,80,54)         -8.5895         estimate D2E/DX2                !
 ! D252  D(53,79,80,81)        171.0603         estimate D2E/DX2                !
 --------------------------------------------------------------------------------
 Trust Radius=3.00D-01 FncErr=1.00D-07 GrdErr=1.00D-06 EigMax=2.50D+02 EigMin=1.00D-04
 Number of steps in this run=    486 maximum allowed number of steps=    486.
 GradGradGradGradGradGradGradGradGradGradGradGradGradGradGradGradGradGrad

 Stoichiometry    C46H12F15N4NiOS2(1-)
 Framework group  C1[X(C46H12F15N4NiOS2)]
 Deg. of freedom   237
 Full point group                 C1      NOp   1
 Largest Abelian subgroup         C1      NOp   1
 Largest concise Abelian subgroup C1      NOp   1
                         Standard orientation:                         
 ---------------------------------------------------------------------
 Center     Atomic      Atomic             Coordinates (Angstroms)
 Number     Number       Type             X           Y           Z
 ---------------------------------------------------------------------
      1          6           0       -1.215766   -2.385539   -1.013676
      2          6           0        1.174794    2.758632   -0.258348
      3          6           0        3.429982    2.560049    0.342077
      4          6           0        2.741518    1.209242    0.252468
      5          6           0        2.663601   -1.094616    0.081700
      6          6           0        2.398949   -3.099829   -0.813366
      7          6           0        1.221721   -2.391596   -0.991589
      8          6           0       -1.184657    2.795162   -0.171413
      9          6           0       -2.534719    3.499631    0.055017
     10          6           0       -2.672175   -1.089165    0.047476
     11          6           0       -3.255635   -2.342093   -0.084262
     12          6           0       -2.749997    1.215742    0.276922
     13          1           0       -4.201328   -2.658270    0.299190
     14          1           0       -2.710221    4.550354   -0.021833
     15          1           0        4.436881    2.743114    0.652983
     16          7           0        1.319887   -1.181421   -0.436379
     17          7           0       -1.317084   -1.174124   -0.451043
     18          7           0        1.327692    1.439640   -0.125282
     19          7           0       -1.332166    1.449958   -0.066123
     20          6           0        2.523831    3.475513   -0.038026
     21          1           0        2.698146    4.523400   -0.140476
     22          6           0        3.255367   -2.339888   -0.041711
     23          1           0        4.194047   -2.652932    0.360931
     24          6           0       -2.388334   -3.100914   -0.846210
     25          6           0       -3.446614    2.566978    0.376787
     26          1           0       -4.464432    2.737889    0.651460
     27          6           0        0.010327   -2.938153   -1.662572
     28          6           0       -3.319139    0.025800    0.483082
     29          6           0        3.308334    0.026323    0.502443
     30          6           0       -0.000855    3.445168   -0.460537
     31          6           0        4.659714   -0.099316    1.202198
     32          6           0        5.802296    0.181058    0.463821
     33          6           0        4.756043   -0.495998    2.545471
     34          6           0        7.061154    0.006959    1.039285
     35          6           0        6.016632   -0.577485    3.152018
     36          6           0        7.170861   -0.351434    2.389635
     37          6           0        0.009361    4.913325   -0.928438
     38          6           0        0.259520    5.236397   -2.278245
     39          6           0       -0.231787    5.928474   -0.004009
     40          6           0        0.221089    6.578195   -2.692680
     41          6           0       -0.176938    7.269522   -0.402946
     42          6           0        0.026304    7.594992   -1.749610
     43          6           0       -4.685204   -0.107764    1.141793
     44          6           0       -5.813820    0.165200    0.379428
     45          6           0       -4.802367   -0.505047    2.480149
     46          6           0       -7.082084   -0.013247    0.932169
     47          6           0       -6.071580   -0.589742    3.064155
     48          6           0       -7.213450   -0.368977    2.281412
     49         28           0        0.004430    0.131890   -0.288272
     50          6           0       -2.683028   -4.502176   -1.359316
     51          6           0       -2.869165   -6.458059   -2.748135
     52          1           0       -1.509450   -4.610321   -3.170768
     53          6           0        2.705206   -4.498386   -1.320349
     54          6           0        2.919622   -6.448386   -2.712787
     55          1           0        1.560119   -4.604183   -3.151427
     56          9           0        3.640919   -0.755089    3.265499
     57          9           0        6.120230   -0.863859    4.468378
     58          9           0        8.389023   -0.478558    2.954237
     59          9           0        8.168306    0.174119    0.288257
     60          9           0        5.684923    0.571163   -0.821923
     61          9           0        0.489248    4.260604   -3.184653
     62          9           0        0.361893    6.891144   -3.999767
     63          9           0        0.034421    8.888375   -2.137362
     64          9           0       -0.310145    8.249486    0.514889
     65          9           0       -0.471413    5.614226    1.285622
     66          9           0       -5.675080    0.551591   -0.906037
     67          9           0       -8.177010    0.147082    0.161431
     68          9           0       -8.439989   -0.498417    2.825897
     69          9           0       -6.195526   -0.873577    4.378811
     70          9           0       -3.697860   -0.760615    3.217077
     71          1           0        2.724172   -7.068530   -3.560676
     72          1           0       -2.659400   -7.079379   -3.592223
     73          8           0        0.017246   -3.815400   -2.567452
     74          6           0        2.257400   -5.063093   -2.476837
     75          6           0       -2.215805   -5.069266   -2.505883
     76          6           0       -3.756551   -6.787228   -1.767754
     77          1           0       -4.396441   -7.638868   -1.780532
     78         16           0       -3.722279   -5.608115   -0.465113
     79         16           0        3.737021   -5.600356   -0.415877
     80          6           0        3.794031   -6.776306   -1.720178
     81          1           0        4.436352   -7.625881   -1.724752
 ---------------------------------------------------------------------
 Rotational constants (GHZ):           0.0272717           0.0244088           0.0157704
 General basis read from cards:  (5D, 7F)
 ======================================================================================================
                                       Pseudopotential Parameters
 ======================================================================================================
  Center     Atomic      Valence      Angular      Power
  Number     Number     Electrons     Momentum     of R      Exponent        Coefficient   SO-Coeffient
 ======================================================================================================
    1          6
                                   No pseudopotential on this center.
    2          6
                                   No pseudopotential on this center.
    3          6
                                   No pseudopotential on this center.
    4          6
                                   No pseudopotential on this center.
    5          6
                                   No pseudopotential on this center.
    6          6
                                   No pseudopotential on this center.
    7          6
                                   No pseudopotential on this center.
    8          6
                                   No pseudopotential on this center.
    9          6
                                   No pseudopotential on this center.
   10          6
                                   No pseudopotential on this center.
   11          6
                                   No pseudopotential on this center.
   12          6
                                   No pseudopotential on this center.
   13          1
                                   No pseudopotential on this center.
   14          1
                                   No pseudopotential on this center.
   15          1
                                   No pseudopotential on this center.
   16          7
                                   No pseudopotential on this center.
   17          7
                                   No pseudopotential on this center.
   18          7
                                   No pseudopotential on this center.
   19          7
                                   No pseudopotential on this center.
   20          6
                                   No pseudopotential on this center.
   21          1
                                   No pseudopotential on this center.
   22          6
                                   No pseudopotential on this center.
   23          1
                                   No pseudopotential on this center.
   24          6
                                   No pseudopotential on this center.
   25          6
                                   No pseudopotential on this center.
   26          1
                                   No pseudopotential on this center.
   27          6
                                   No pseudopotential on this center.
   28          6
                                   No pseudopotential on this center.
   29          6
                                   No pseudopotential on this center.
   30          6
                                   No pseudopotential on this center.
   31          6
                                   No pseudopotential on this center.
   32          6
                                   No pseudopotential on this center.
   33          6
                                   No pseudopotential on this center.
   34          6
                                   No pseudopotential on this center.
   35          6
                                   No pseudopotential on this center.
   36          6
                                   No pseudopotential on this center.
   37          6
                                   No pseudopotential on this center.
   38          6
                                   No pseudopotential on this center.
   39          6
                                   No pseudopotential on this center.
   40          6
                                   No pseudopotential on this center.
   41          6
                                   No pseudopotential on this center.
   42          6
                                   No pseudopotential on this center.
   43          6
                                   No pseudopotential on this center.
   44          6
                                   No pseudopotential on this center.
   45          6
                                   No pseudopotential on this center.
   46          6
                                   No pseudopotential on this center.
   47          6
                                   No pseudopotential on this center.
   48          6
                                   No pseudopotential on this center.
   49         28           18
                                      D and up 
                                                     1      469.9324331      -10.00000000    0.00000000
                                                     2       85.4236411      -69.40848050    0.00000000
                                                     2       21.2674984      -12.09510200    0.00000000
                                      S - D
                                                     0      162.1686097        3.00000000    0.00000000
                                                     1      176.5333232       22.02536180    0.00000000
                                                     2       68.9562010      443.01810880    0.00000000
                                                     2       13.5792838      145.56964110    0.00000000
                                      P - D
                                                     0       69.0181506        5.00000000    0.00000000
                                                     1      275.5955596        4.98828240    0.00000000
                                                     2       47.1315453      256.69458530    0.00000000
                                                     2       12.9874075       78.47544500    0.00000000
   50          6
                                   No pseudopotential on this center.
   51          6
                                   No pseudopotential on this center.
   52          1
                                   No pseudopotential on this center.
   53          6
                                   No pseudopotential on this center.
   54          6
                                   No pseudopotential on this center.
   55          1
                                   No pseudopotential on this center.
   56          9
                                   No pseudopotential on this center.
   57          9
                                   No pseudopotential on this center.
   58          9
                                   No pseudopotential on this center.
   59          9
                                   No pseudopotential on this center.
   60          9
                                   No pseudopotential on this center.
   61          9
                                   No pseudopotential on this center.
   62          9
                                   No pseudopotential on this center.
   63          9
                                   No pseudopotential on this center.
   64          9
                                   No pseudopotential on this center.
   65          9
                                   No pseudopotential on this center.
   66          9
                                   No pseudopotential on this center.
   67          9
                                   No pseudopotential on this center.
   68          9
                                   No pseudopotential on this center.
   69          9
                                   No pseudopotential on this center.
   70          9
                                   No pseudopotential on this center.
   71          1
                                   No pseudopotential on this center.
   72          1
                                   No pseudopotential on this center.
   73          8
                                   No pseudopotential on this center.
   74          6
                                   No pseudopotential on this center.
   75          6
                                   No pseudopotential on this center.
   76          6
                                   No pseudopotential on this center.
   77          1
                                   No pseudopotential on this center.
   78         16
                                   No pseudopotential on this center.
   79         16
                                   No pseudopotential on this center.
   80          6
                                   No pseudopotential on this center.
   81          1
                                   No pseudopotential on this center.
 ======================================================================================================
 There are  1384 symmetry adapted cartesian basis functions of A   symmetry.
 There are  1314 symmetry adapted basis functions of A   symmetry.
  1314 basis functions,  2360 primitive gaussians,  1384 cartesian basis functions
   255 alpha electrons      255 beta electrons
       nuclear repulsion energy     11703.8119403079 Hartrees.
 NAtoms=   81 NActive=   81 NUniq=   81 SFac= 1.00D+00 NAtFMM=   60 NAOKFM=T Big=T
 Integral buffers will be    131072 words long.
 Raffenetti 2 integral format.
 Two-electron integral symmetry is turned on.
 One-electron integrals computed using PRISM.
   1 Symmetry operations used in ECPInt.
 ECPInt:  NShTT=   74691 NPrTT=  411270 LenC2=   51268 LenP2D=  146618.
 LDataN:  DoStor=T MaxTD1= 4 Len=   56
 NBasis=  1314 RedAO= T EigKep=  1.22D-06  NBF=  1314
 NBsUse=  1295 1.00D-06 EigRej=  6.42D-07 NBFU=  1295
 ExpMin= 2.40D-02 ExpMax= 2.19D+04 ExpMxC= 3.30D+03 IAcc=3 IRadAn=         5 AccDes= 0.00D+00
 Harris functional with IExCor=  402 and IRadAn=       5 diagonalized for initial guess.
 HarFok:  IExCor=  402 AccDes= 0.00D+00 IRadAn=         5 IDoV= 1 UseB2=F ITyADJ=14
 ICtDFT=  3500011 ScaDFX=  1.000000  1.000000  1.000000  1.000000
 FoFCou: FMM=F IPFlag=           0 FMFlag=      100000 FMFlg1=        2001
         NFxFlg=           0 DoJE=T BraDBF=F KetDBF=T FulRan=T
         wScrn=  0.000000 ICntrl=       500 IOpCl=  0 I1Cent=   200000004 NGrid=           0
         NMat0=    1 NMatS0=      1 NMatT0=    0 NMatD0=    1 NMtDS0=    0 NMtDT0=    0
 Petite list used in FoFCou.
 Requested convergence on RMS density matrix=1.00D-08 within1000 cycles.
 Requested convergence on MAX density matrix=1.00D-06.
 Requested convergence on             energy=1.00D-06.
 No special actions if energy rises.
 EnCoef did     4 forward-backward iterations
 EnCoef did   100 forward-backward iterations
 EnCoef did    11 forward-backward iterations
 EnCoef did     1 forward-backward iterations
 Restarting incremental Fock formation.
 SCF Done:  E(RB3LYP) =  -4517.67443634     A.U. after   25 cycles
            NFock= 25  Conv=0.50D-08     -V/T= 2.0198

 **********************************************************************

            Population analysis using the SCF Density.

 **********************************************************************

 Orbital symmetries:
       Occupied  (A) (A) (A) (A) (A) (A) (A) (A) (A) (A) (A) (A)
                 (A) (A) (A) (A) (A) (A) (A) (A) (A) (A) (A) (A)
                 (A) (A) (A) (A) (A) (A) (A) (A) (A) (A) (A) (A)
                 (A) (A) (A) (A) (A) (A) (A) (A) (A) (A) (A) (A)
                 (A) (A) (A) (A) (A) (A) (A) (A) (A) (A) (A) (A)
                 (A) (A) (A) (A) (A) (A) (A) (A) (A) (A) (A) (A)
                 (A) (A) (A) (A) (A) (A) (A) (A) (A) (A) (A) (A)
                 (A) (A) (A) (A) (A) (A) (A) (A) (A) (A) (A) (A)
                 (A) (A) (A) (A) (A) (A) (A) (A) (A) (A) (A) (A)
                 (A) (A) (A) (A) (A) (A) (A) (A) (A) (A) (A) (A)
                 (A) (A) (A) (A) (A) (A) (A) (A) (A) (A) (A) (A)
                 (A) (A) (A) (A) (A) (A) (A) (A) (A) (A) (A) (A)
                 (A) (A) (A) (A) (A) (A) (A) (A) (A) (A) (A) (A)
                 (A) (A) (A) (A) (A) (A) (A) (A) (A) (A) (A) (A)
                 (A) (A) (A) (A) (A) (A) (A) (A) (A) (A) (A) (A)
                 (A) (A) (A) (A) (A) (A) (A) (A) (A) (A) (A) (A)
                 (A) (A) (A) (A) (A) (A) (A) (A) (A) (A) (A) (A)
                 (A) (A) (A) (A) (A) (A) (A) (A) (A) (A) (A) (A)
                 (A) (A) (A) (A) (A) (A) (A) (A) (A) (A) (A) (A)
                 (A) (A) (A) (A) (A) (A) (A) (A) (A) (A) (A) (A)
                 (A) (A) (A) (A) (A) (A) (A) (A) (A) (A) (A) (A)
                 (A) (A) (A)
       Virtual   (A) (A) (A) (A) (A) (A) (A) (A) (A) (A) (A) (A)
                 (A) (A) (A) (A) (A) (A) (A) (A) (A) (A) (A) (A)
                 (A) (A) (A) (A) (A) (A) (A) (A) (A) (A) (A) (A)
                 (A) (A) (A) (A) (A) (A) (A) (A) (A) (A) (A) (A)
                 (A) (A) (A) (A) (A) (A) (A) (A) (A) (A) (A) (A)
                 (A) (A) (A) (A) (A) (A) (A) (A) (A) (A) (A) (A)
                 (A) (A) (A) (A) (A) (A) (A) (A) (A) (A) (A) (A)
                 (A) (A) (A) (A) (A) (A) (A) (A) (A) (A) (A) (A)
                 (A) (A) (A) (A) (A) (A) (A) (A) (A) (A) (A) (A)
                 (A) (A) (A) (A) (A) (A) (A) (A) (A) (A) (A) (A)
                 (A) (A) (A) (A) (A) (A) (A) (A) (A) (A) (A) (A)
                 (A) (A) (A) (A) (A) (A) (A) (A) (A) (A) (A) (A)
                 (A) (A) (A) (A) (A) (A) (A) (A) (A) (A) (A) (A)
                 (A) (A) (A) (A) (A) (A) (A) (A) (A) (A) (A) (A)
                 (A) (A) (A) (A) (A) (A) (A) (A) (A) (A) (A) (A)
                 (A) (A) (A) (A) (A) (A) (A) (A) (A) (A) (A) (A)
                 (A) (A) (A) (A) (A) (A) (A) (A) (A) (A) (A) (A)
                 (A) (A) (A) (A) (A) (A) (A) (A) (A) (A) (A) (A)
                 (A) (A) (A) (A) (A) (A) (A) (A) (A) (A) (A) (A)
                 (A) (A) (A) (A) (A) (A) (A) (A) (A) (A) (A) (A)
                 (A) (A) (A) (A) (A) (A) (A) (A) (A) (A) (A) (A)
                 (A) (A) (A) (A) (A) (A) (A) (A) (A) (A) (A) (A)
                 (A) (A) (A) (A) (A) (A) (A) (A) (A) (A) (A) (A)
                 (A) (A) (A) (A) (A) (A) (A) (A) (A) (A) (A) (A)
                 (A) (A) (A) (A) (A) (A) (A) (A) (A) (A) (A) (A)
                 (A) (A) (A) (A) (A) (A) (A) (A) (A) (A) (A) (A)
                 (A) (A) (A) (A) (A) (A) (A) (A) (A) (A) (A) (A)
                 (A) (A) (A) (A) (A) (A) (A) (A) (A) (A) (A) (A)
                 (A) (A) (A) (A) (A) (A) (A) (A) (A) (A) (A) (A)
                 (A) (A) (A) (A) (A) (A) (A) (A) (A) (A) (A) (A)
                 (A) (A) (A) (A) (A) (A) (A) (A) (A) (A) (A) (A)
                 (A) (A) (A) (A) (A) (A) (A) (A) (A) (A) (A) (A)
                 (A) (A) (A) (A) (A) (A) (A) (A) (A) (A) (A) (A)
                 (A) (A) (A) (A) (A) (A) (A) (A) (A) (A) (A) (A)
                 (A) (A) (A) (A) (A) (A) (A) (A) (A) (A) (A) (A)
                 (A) (A) (A) (A) (A) (A) (A) (A) (A) (A) (A) (A)
                 (A) (A) (A) (A) (A) (A) (A) (A) (A) (A) (A) (A)
                 (A) (A) (A) (A) (A) (A) (A) (A) (A) (A) (A) (A)
                 (A) (A) (A) (A) (A) (A) (A) (A) (A) (A) (A) (A)
                 (A) (A) (A) (A) (A) (A) (A) (A) (A) (A) (A) (A)
                 (A) (A) (A) (A) (A) (A) (A) (A) (A) (A) (A) (A)
                 (A) (A) (A) (A) (A) (A) (A) (A) (A) (A) (A) (A)
                 (A) (A) (A) (A) (A) (A) (A) (A) (A) (A) (A) (A)
                 (A) (A) (A) (A) (A) (A) (A) (A) (A) (A) (A) (A)
                 (A) (A) (A) (A) (A) (A) (A) (A) (A) (A) (A) (A)
                 (A) (A) (A) (A) (A) (A) (A) (A) (A) (A) (A) (A)
                 (A) (A) (A) (A) (A) (A) (A) (A) (A) (A) (A) (A)
                 (A) (A) (A) (A) (A) (A) (A) (A) (A) (A) (A) (A)
                 (A) (A) (A) (A) (A) (A) (A) (A) (A) (A) (A) (A)
                 (A) (A) (A) (A) (A) (A) (A) (A) (A) (A) (A) (A)
                 (A) (A) (A) (A) (A) (A) (A) (A) (A) (A) (A) (A)
                 (A) (A) (A) (A) (A) (A) (A) (A) (A) (A) (A) (A)
                 (A) (A) (A) (A) (A) (A) (A) (A) (A) (A) (A) (A)
                 (A) (A) (A) (A) (A) (A) (A) (A) (A) (A) (A) (A)
                 (A) (A) (A) (A) (A) (A) (A) (A) (A) (A) (A) (A)
                 (A) (A) (A) (A) (A) (A) (A) (A) (A) (A) (A) (A)
                 (A) (A) (A) (A) (A) (A) (A) (A) (A) (A) (A) (A)
                 (A) (A) (A) (A) (A) (A) (A) (A) (A) (A) (A) (A)
                 (A) (A) (A) (A) (A) (A) (A) (A) (A) (A) (A) (A)
                 (A) (A) (A) (A) (A) (A) (A) (A) (A) (A) (A) (A)
                 (A) (A) (A) (A) (A) (A) (A) (A) (A) (A) (A) (A)
                 (A) (A) (A) (A) (A) (A) (A) (A) (A) (A) (A) (A)
                 (A) (A) (A) (A) (A) (A) (A) (A) (A) (A) (A) (A)
                 (A) (A) (A) (A) (A) (A) (A) (A) (A) (A) (A) (A)
                 (A) (A) (A) (A) (A) (A) (A) (A) (A) (A) (A) (A)
                 (A) (A) (A) (A) (A) (A) (A) (A) (A) (A) (A) (A)
                 (A) (A) (A) (A) (A) (A) (A) (A) (A) (A) (A) (A)
                 (A) (A) (A) (A) (A) (A) (A) (A) (A) (A) (A) (A)
                 (A) (A) (A) (A) (A) (A) (A) (A) (A) (A) (A) (A)
                 (A) (A) (A) (A) (A) (A) (A) (A) (A) (A) (A) (A)
                 (A) (A) (A) (A) (A) (A) (A) (A) (A) (A) (A) (A)
                 (A) (A) (A) (A) (A) (A) (A) (A) (A) (A) (A) (A)
                 (A) (A) (A) (A) (A) (A) (A) (A) (A) (A) (A) (A)
                 (A) (A) (A) (A) (A) (A) (A) (A) (A) (A) (A) (A)
                 (A) (A) (A) (A) (A) (A) (A) (A) (A) (A) (A) (A)
                 (A) (A) (A) (A) (A) (A) (A) (A) (A) (A) (A) (A)
                 (A) (A) (A) (A) (A) (A) (A) (A) (A) (A) (A) (A)
                 (A) (A) (A) (A) (A) (A) (A) (A) (A) (A) (A) (A)
                 (A) (A) (A) (A) (A) (A) (A) (A) (A) (A) (A) (A)
                 (A) (A) (A) (A) (A) (A) (A) (A) (A) (A) (A) (A)
                 (A) (A) (A) (A) (A) (A) (A) (A) (A) (A) (A) (A)
                 (A) (A) (A) (A) (A) (A) (A) (A) (A) (A) (A) (A)
                 (A) (A) (A) (A) (A) (A) (A) (A) (A) (A) (A) (A)
                 (A) (A) (A) (A) (A) (A) (A) (A) (A) (A) (A) (A)
                 (A) (A) (A) (A) (A) (A) (A) (A) (A) (A) (A) (A)
                 (A) (A) (A) (A) (A) (A) (A) (A) (A) (A) (A) (A)
                 (A) (A) (A) (A) (A) (A) (A) (A)
 The electronic state is 1-A.
 Alpha  occ. eigenvalues --  -88.80926 -88.80911 -24.70218 -24.70130 -24.70082
 Alpha  occ. eigenvalues --  -24.69646 -24.69548 -24.69519 -24.69516 -24.69471
 Alpha  occ. eigenvalues --  -24.69457 -24.68760 -24.68665 -24.68614 -24.68559
 Alpha  occ. eigenvalues --  -24.68539 -24.68492 -19.04396 -14.28051 -14.27950
 Alpha  occ. eigenvalues --  -14.27021 -14.26977 -10.26689 -10.26679 -10.26617
 Alpha  occ. eigenvalues --  -10.26133 -10.26122 -10.26093 -10.26037 -10.26019
 Alpha  occ. eigenvalues --  -10.25963 -10.25869 -10.25810 -10.25737 -10.25564
 Alpha  occ. eigenvalues --  -10.25536 -10.25477 -10.19001 -10.18582 -10.18569
 Alpha  occ. eigenvalues --  -10.18416 -10.16458 -10.16324 -10.15703 -10.15625
 Alpha  occ. eigenvalues --  -10.14090 -10.13969 -10.13635 -10.13606 -10.13520
 Alpha  occ. eigenvalues --  -10.13482 -10.13190 -10.13189 -10.13139 -10.13026
 Alpha  occ. eigenvalues --  -10.13023 -10.12961 -10.12932 -10.12551 -10.12490
 Alpha  occ. eigenvalues --  -10.11549 -10.11548 -10.11011 -10.10997 -10.09775
 Alpha  occ. eigenvalues --  -10.09764 -10.09493 -10.09488  -7.88173  -7.88155
 Alpha  occ. eigenvalues --   -5.84558  -5.84541  -5.84175  -5.84158  -5.83774
 Alpha  occ. eigenvalues --   -5.83756  -3.95519  -2.57307  -2.57207  -2.51638
 Alpha  occ. eigenvalues --   -1.21940  -1.21889  -1.21849  -1.20971  -1.20906
 Alpha  occ. eigenvalues --   -1.20850  -1.20372  -1.20337  -1.20291  -1.19548
 Alpha  occ. eigenvalues --   -1.19461  -1.19384  -1.19205  -1.19187  -1.19137
 Alpha  occ. eigenvalues --   -0.93795  -0.89055  -0.87988  -0.87756  -0.86099
 Alpha  occ. eigenvalues --   -0.85692  -0.85562  -0.85371  -0.78421  -0.78391
 Alpha  occ. eigenvalues --   -0.78081  -0.77205  -0.75825  -0.73619  -0.73587
 Alpha  occ. eigenvalues --   -0.73467  -0.72446  -0.71593  -0.71116  -0.70670
 Alpha  occ. eigenvalues --   -0.70163  -0.69833  -0.69132  -0.66051  -0.65494
 Alpha  occ. eigenvalues --   -0.63663  -0.63437  -0.63353  -0.62454  -0.62295
 Alpha  occ. eigenvalues --   -0.62228  -0.61709  -0.61675  -0.61642  -0.60987
 Alpha  occ. eigenvalues --   -0.57732  -0.57685  -0.55074  -0.54927  -0.54887
 Alpha  occ. eigenvalues --   -0.54229  -0.54165  -0.54091  -0.53444  -0.53172
 Alpha  occ. eigenvalues --   -0.53000  -0.52714  -0.51618  -0.50314  -0.50200
 Alpha  occ. eigenvalues --   -0.50153  -0.50113  -0.50107  -0.49716  -0.49478
 Alpha  occ. eigenvalues --   -0.49389  -0.49079  -0.48335  -0.47759  -0.47724
 Alpha  occ. eigenvalues --   -0.47656  -0.47620  -0.47466  -0.47423  -0.47101
 Alpha  occ. eigenvalues --   -0.47070  -0.47024  -0.46233  -0.46114  -0.45297
 Alpha  occ. eigenvalues --   -0.44788  -0.44738  -0.44683  -0.44024  -0.43974
 Alpha  occ. eigenvalues --   -0.43513  -0.43459  -0.43189  -0.42676  -0.42467
 Alpha  occ. eigenvalues --   -0.42043  -0.41937  -0.41871  -0.41795  -0.41778
 Alpha  occ. eigenvalues --   -0.41720  -0.40188  -0.39853  -0.39774  -0.39734
 Alpha  occ. eigenvalues --   -0.39710  -0.39626  -0.39389  -0.39067  -0.38937
 Alpha  occ. eigenvalues --   -0.38358  -0.38161  -0.37410  -0.37084  -0.37058
 Alpha  occ. eigenvalues --   -0.37006  -0.36657  -0.36105  -0.35602  -0.35215
 Alpha  occ. eigenvalues --   -0.35026  -0.34889  -0.34338  -0.34287  -0.34139
 Alpha  occ. eigenvalues --   -0.34108  -0.34048  -0.33621  -0.32978  -0.32861
 Alpha  occ. eigenvalues --   -0.32183  -0.31998  -0.31900  -0.31674  -0.31153
 Alpha  occ. eigenvalues --   -0.31049  -0.30884  -0.30262  -0.29958  -0.29865
 Alpha  occ. eigenvalues --   -0.29618  -0.28863  -0.28486  -0.28305  -0.28050
 Alpha  occ. eigenvalues --   -0.27832  -0.27593  -0.25527  -0.25434  -0.24761
 Alpha  occ. eigenvalues --   -0.24533  -0.24375  -0.23129  -0.22989  -0.22209
 Alpha  occ. eigenvalues --   -0.21928  -0.21753  -0.21647  -0.21459  -0.21415
 Alpha  occ. eigenvalues --   -0.21409  -0.21153  -0.19804  -0.18431  -0.18161
[...]
 Alpha virt. eigenvalues --    0.71949   0.72151   0.72594   0.73335   0.73741
 Alpha virt. eigenvalues --    0.74165   0.74393   0.75411   0.75683   0.76184
 Alpha virt. eigenvalues --    0.76400   0.76656   0.76979   0.77162   0.77424
 Alpha virt. eigenvalues --    0.77563   0.78016   0.78300   0.78527   0.79007
 Alpha virt. eigenvalues --    0.79144   0.79354   0.79759   0.79968   0.80164
 Alpha virt. eigenvalues --    0.80370   0.80433   0.81201   0.81527   0.82134
 Alpha virt. eigenvalues --    0.83185   0.83325   0.83668   0.83799   0.84347
 Alpha virt. eigenvalues --    0.84484   0.84817   0.85135   0.85545   0.86716
 Alpha virt. eigenvalues --    0.86870   0.87286   0.87671   0.87760   0.88108
 Alpha virt. eigenvalues --    0.88394   0.88622   0.88679   0.88893   0.88949
 Alpha virt. eigenvalues --    0.89366   0.89542   0.89590   0.90193   0.90347
 Alpha virt. eigenvalues --    0.90591   0.90690   0.91195   0.91441   0.91834
 Alpha virt. eigenvalues --    0.92163   0.92629   0.92770   0.92908   0.93491
 Alpha virt. eigenvalues --    0.93555   0.94782   0.94886   0.95435   0.95698
 Alpha virt. eigenvalues --    0.96117   0.96260   0.96431   0.96946   0.97402
 Alpha virt. eigenvalues --    0.97539   0.97579   0.98146   0.98317   0.98565
 Alpha virt. eigenvalues --    0.98844   0.99181   0.99539   0.99625   1.00223
 Alpha virt. eigenvalues --    1.00291   1.00431   1.00713   1.00845   1.01245
 Alpha virt. eigenvalues --    1.01369   1.01482   1.01831   1.02004   1.02136
 Alpha virt. eigenvalues --    1.02454   1.02644   1.02908   1.03059   1.03536
 Alpha virt. eigenvalues --    1.03770   1.04742   1.05017   1.05102   1.05512
 Alpha virt. eigenvalues --    1.05914   1.06429   1.06834   1.07008   1.07352
 Alpha virt. eigenvalues --    1.07747   1.08062   1.08458   1.09365   1.09503
 Alpha virt. eigenvalues --    1.10285   1.10358   1.11102   1.11792   1.12807
 Alpha virt. eigenvalues --    1.13079   1.13234   1.13649   1.15171   1.15492
 Alpha virt. eigenvalues --    1.16444   1.16568   1.16997   1.17164   1.17471
 Alpha virt. eigenvalues --    1.17801   1.18258   1.18677   1.18987   1.19501
 Alpha virt. eigenvalues --    1.19642   1.20577   1.20691   1.20877   1.21350
 Alpha virt. eigenvalues --    1.21688   1.21879   1.22156   1.22208   1.22445
 Alpha virt. eigenvalues --    1.22988   1.23082   1.23272   1.23493   1.23656
 Alpha virt. eigenvalues --    1.24235   1.24383   1.24485   1.25015   1.25339
 Alpha virt. eigenvalues --    1.25548   1.25786   1.26196   1.26425   1.27103
 Alpha virt. eigenvalues --    1.27391   1.28063   1.28509   1.28858   1.29231
 Alpha virt. eigenvalues --    1.29451   1.29528   1.29780   1.30050   1.30275
 Alpha virt. eigenvalues --    1.30792   1.31036   1.31542   1.31675   1.32159
 Alpha virt. eigenvalues --    1.32321   1.32641   1.33139   1.33620   1.33835
 Alpha virt. eigenvalues --    1.34138   1.34419   1.34517   1.34947   1.35326
 Alpha virt. eigenvalues --    1.35498   1.35655   1.36291   1.36628   1.36867
 Alpha virt. eigenvalues --    1.37116   1.37649   1.37790   1.37951   1.38319
 Alpha virt. eigenvalues --    1.38608   1.38888   1.39030   1.39106   1.39550
 Alpha virt. eigenvalues --    1.40218   1.40297   1.40472   1.40873   1.41333
 Alpha virt. eigenvalues --    1.41639   1.42411   1.42766   1.43055   1.43511
 Alpha virt. eigenvalues --    1.44165   1.44304   1.44390   1.44823   1.45074
 Alpha virt. eigenvalues --    1.45208   1.45359   1.45680   1.46098   1.46637
 Alpha virt. eigenvalues --    1.46993   1.48136   1.48369   1.48937   1.49268
 Alpha virt. eigenvalues --    1.49838   1.50326   1.50664   1.51073   1.51304
 Alpha virt. eigenvalues --    1.51904   1.52373   1.53509   1.53556   1.54230
 Alpha virt. eigenvalues --    1.54383   1.55277   1.55855   1.56124   1.56479
 Alpha virt. eigenvalues --    1.56570   1.57783   1.58327   1.59050   1.59411
 Alpha virt. eigenvalues --    1.60154   1.61187   1.61973   1.62043   1.63447
 Alpha virt. eigenvalues --    1.64115   1.64527   1.64952   1.65408   1.65842
 Alpha virt. eigenvalues --    1.65914   1.66261   1.66330   1.66750   1.66944
 Alpha virt. eigenvalues --    1.67001   1.67160   1.67312   1.67529   1.67615
 Alpha virt. eigenvalues --    1.67977   1.68354   1.68470   1.68745   1.68942
 Alpha virt. eigenvalues --    1.69127   1.69274   1.69840   1.70073   1.70490
 Alpha virt. eigenvalues --    1.70655   1.70960   1.71697   1.72341   1.72529
 Alpha virt. eigenvalues --    1.73021   1.73219   1.73504   1.73619   1.73754
 Alpha virt. eigenvalues --    1.73903   1.74264   1.74448   1.74582   1.75021
 Alpha virt. eigenvalues --    1.75488   1.75983   1.76331   1.76439   1.76637
 Alpha virt. eigenvalues --    1.76782   1.76986   1.77297   1.77797   1.77995
 Alpha virt. eigenvalues --    1.78087   1.78299   1.78347   1.78510   1.78695
 Alpha virt. eigenvalues --    1.78757   1.79377   1.79446   1.79575   1.79694
 Alpha virt. eigenvalues --    1.80536   1.81062   1.81167   1.81444   1.81837
 Alpha virt. eigenvalues --    1.82001   1.82134   1.82725   1.82949   1.83047
 Alpha virt. eigenvalues --    1.83268   1.83676   1.83832   1.83938   1.84228
 Alpha virt. eigenvalues --    1.84247   1.84318   1.84568   1.84629   1.84782
 Alpha virt. eigenvalues --    1.85046   1.85494   1.85638   1.85882   1.86006
 Alpha virt. eigenvalues --    1.86212   1.86439   1.86486   1.86672   1.86968
 Alpha virt. eigenvalues --    1.87061   1.87311   1.87935   1.88070   1.88482
 Alpha virt. eigenvalues --    1.88682   1.88984   1.89139   1.89242   1.89402
 Alpha virt. eigenvalues --    1.89567   1.89620   1.90347   1.90522   1.90678
 Alpha virt. eigenvalues --    1.91462   1.91534   1.92204   1.92373   1.92474
 Alpha virt. eigenvalues --    1.92752   1.92949   1.93420   1.93784   1.93796
 Alpha virt. eigenvalues --    1.93970   1.94124   1.94323   1.94612   1.94768
 Alpha virt. eigenvalues --    1.94842   1.94985   1.95210   1.95707   1.96155
 Alpha virt. eigenvalues --    1.96933   1.97252   1.97702   1.97917   1.98162
 Alpha virt. eigenvalues --    1.98322   1.98481   1.99193   1.99462   1.99596
 Alpha virt. eigenvalues --    1.99870   2.00086   2.00353   2.00731   2.00808
 Alpha virt. eigenvalues --    2.01285   2.01587   2.02089   2.02407   2.02865
 Alpha virt. eigenvalues --    2.04050   2.04423   2.04700   2.05401   2.05803
 Alpha virt. eigenvalues --    2.06000   2.06659   2.07286   2.07566   2.07851
 Alpha virt. eigenvalues --    2.08027   2.08121   2.08653   2.08888   2.09302
 Alpha virt. eigenvalues --    2.09612   2.10074   2.10442   2.11008   2.11721
 Alpha virt. eigenvalues --    2.12829   2.13227   2.14006   2.14405   2.14792
 Alpha virt. eigenvalues --    2.14928   2.15786   2.16165   2.16620   2.17087
 Alpha virt. eigenvalues --    2.17303   2.17766   2.18632   2.18970   2.19250
 Alpha virt. eigenvalues --    2.19731   2.20248   2.20634   2.20900   2.21330
 Alpha virt. eigenvalues --    2.21535   2.21618   2.22608   2.23360   2.23550
 Alpha virt. eigenvalues --    2.23988   2.25163   2.26485   2.26506   2.26824
 Alpha virt. eigenvalues --    2.26968   2.27059   2.27698   2.27908   2.27974
 Alpha virt. eigenvalues --    2.28212   2.28378   2.28530   2.29014   2.29319
 Alpha virt. eigenvalues --    2.29482   2.29718   2.29849   2.29979   2.30336
 Alpha virt. eigenvalues --    2.30394   2.30540   2.31212   2.32224   2.32493
 Alpha virt. eigenvalues --    2.32627   2.32809   2.33054   2.33682   2.34068
 Alpha virt. eigenvalues --    2.34333   2.34937   2.35702   2.36357   2.36522
 Alpha virt. eigenvalues --    2.36796   2.37209   2.37783   2.38370   2.38652
 Alpha virt. eigenvalues --    2.38744   2.38795   2.38855   2.39326   2.39873
 Alpha virt. eigenvalues --    2.40473   2.40941   2.41197   2.41391   2.41685
 Alpha virt. eigenvalues --    2.42294   2.42338   2.43162   2.43301   2.43438
 Alpha virt. eigenvalues --    2.44041   2.44888   2.45290   2.45619   2.45718
 Alpha virt. eigenvalues --    2.46234   2.46442   2.46823   2.47067   2.47528
 Alpha virt. eigenvalues --    2.47730   2.48190   2.49258   2.49389   2.50159
 Alpha virt. eigenvalues --    2.50472   2.51086   2.51551   2.52690   2.53336
 Alpha virt. eigenvalues --    2.54191   2.54260   2.54714   2.55210   2.55559
 Alpha virt. eigenvalues --    2.55879   2.56471   2.57313   2.57676   2.58174
 Alpha virt. eigenvalues --    2.59206   2.59619   2.59860   2.60029   2.60172
 Alpha virt. eigenvalues --    2.60283   2.60785   2.61049   2.61358   2.61550
 Alpha virt. eigenvalues --    2.61703   2.62215   2.62377   2.63036   2.63141
 Alpha virt. eigenvalues --    2.63960   2.64097   2.64142   2.64356   2.64639
 Alpha virt. eigenvalues --    2.65239   2.65479   2.65819   2.66472   2.66577
 Alpha virt. eigenvalues --    2.67518   2.67670   2.67787   2.68395   2.68694
 Alpha virt. eigenvalues --    2.69166   2.70397   2.70820   2.71214   2.71887
 Alpha virt. eigenvalues --    2.72050   2.73018   2.73726   2.74226   2.74681
 Alpha virt. eigenvalues --    2.76222   2.77527   2.77804   2.77939   2.78105
 Alpha virt. eigenvalues --    2.78491   2.78575   2.79436   2.80763   2.81659
 Alpha virt. eigenvalues --    2.82293   2.82923   2.83083   2.83714   2.84063
 Alpha virt. eigenvalues --    2.84402   2.85954   2.86265   2.86844   2.89325
 Alpha virt. eigenvalues --    2.90411   2.91470   2.93227   2.94699   2.95108
 Alpha virt. eigenvalues --    2.95857   2.95963   2.96822   2.97907   2.98390
 Alpha virt. eigenvalues --    2.99667   3.00255   3.00541   3.01983   3.03831
 Alpha virt. eigenvalues --    3.04495   3.05898   3.06098   3.06271   3.09132
 Alpha virt. eigenvalues --    3.10254   3.10866   3.11068   3.12128   3.12408
 Alpha virt. eigenvalues --    3.12589   3.12820   3.13045   3.15598   3.16112
 Alpha virt. eigenvalues --    3.16764   3.18943   3.20325   3.21550   3.22072
 Alpha virt. eigenvalues --    3.22461   3.22584   3.22715   3.23218   3.24846
 Alpha virt. eigenvalues --    3.26604   3.27259   3.27589   3.28748   3.29336
 Alpha virt. eigenvalues --    3.29660   3.30015   3.30081   3.31057   3.31353
 Alpha virt. eigenvalues --    3.34284   3.34458   3.36496   3.36776   3.40315
 Alpha virt. eigenvalues --    3.40587   3.40680   3.41348   3.42239   3.42401
 Alpha virt. eigenvalues --    3.42571   3.45918   3.47154   3.47349   3.47371
 Alpha virt. eigenvalues --    3.50002   3.50969   3.51290   3.51548   3.53970
 Alpha virt. eigenvalues --    3.71252   3.72428   3.73307   3.73401   3.73654
 Alpha virt. eigenvalues --    3.86376   3.86817   3.86824   3.88387  48.32510
          Condensed to atoms (all electrons):
 Mulliken charges:
               1
     1  C    0.075800
     2  C    0.146156
     3  C   -0.088564
     4  C    0.282946
     5  C   -0.060975
     6  C    0.376455
     7  C    0.055578
     8  C    0.158088
     9  C   -0.186286
    10  C   -0.066040
    11  C   -0.532343
    12  C    0.302601
    13  H    0.120381
    14  H    0.115123
    15  H    0.117264
    16  N    0.586648
    17  N    0.583160
    18  N    0.335813
    19  N    0.337861
    20  C   -0.191558
    21  H    0.114639
    22  C   -0.519260
    23  H    0.120348
    24  C    0.359997
    25  C   -0.085100
    26  H    0.117307
    27  C    0.139636
    28  C    0.210794
    29  C    0.209164
    30  C    0.026440
    31  C   -0.810416
    32  C    0.141914
    33  C    0.261808
    34  C    0.250850
    35  C    0.314786
    36  C    0.496857
    37  C   -0.635907
    38  C    0.181170
    39  C    0.012296
    40  C    0.321762
    41  C    0.297849
    42  C    0.490370
    43  C   -0.794058
    44  C    0.140209
    45  C    0.245670
    46  C    0.249120
    47  C    0.317764
    48  C    0.494428
    49  Ni  -0.454204
    50  C   -0.458245
    51  C   -0.290587
    52  H    0.167020
    53  C   -0.465121
    54  C   -0.289507
    55  H    0.166899
    56  F   -0.276674
    57  F   -0.352552
    58  F   -0.351262
    59  F   -0.351453
    60  F   -0.270810
    61  F   -0.277341
    62  F   -0.355756
    63  F   -0.351545
    64  F   -0.353773
    65  F   -0.277526
    66  F   -0.269620
    67  F   -0.351374
    68  F   -0.351219
    69  F   -0.352684
    70  F   -0.277136
    71  H    0.120262
    72  H    0.120253
    73  O   -0.535289
    74  C    0.229499
    75  C    0.238554
    76  C   -0.095957
    77  H    0.141773
    78  S    0.019997
    79  S    0.021836
    80  C   -0.096780
    81  H    0.141777
 Sum of Mulliken charges =  -1.00000
 Mulliken charges with hydrogens summed into heavy atoms:
               1
     1  C    0.075800
     2  C    0.146156
     3  C    0.028699
     4  C    0.282946
     5  C   -0.060975
     6  C    0.376455
     7  C    0.055578
     8  C    0.158088
     9  C   -0.071163
    10  C   -0.066040
    11  C   -0.411962
    12  C    0.302601
    16  N    0.586648
    17  N    0.583160
    18  N    0.335813
    19  N    0.337861
    20  C   -0.076919
    22  C   -0.398912
    24  C    0.359997
    25  C    0.032208
    27  C    0.139636
    28  C    0.210794
    29  C    0.209164
    30  C    0.026440
    31  C   -0.810416
    32  C    0.141914
    33  C    0.261808
    34  C    0.250850
    35  C    0.314786
    36  C    0.496857
    37  C   -0.635907
    38  C    0.181170
    39  C    0.012296
    40  C    0.321762
    41  C    0.297849
    42  C    0.490370
    43  C   -0.794058
    44  C    0.140209
    45  C    0.245670
    46  C    0.249120
    47  C    0.317764
    48  C    0.494428
    49  Ni  -0.454204
    50  C   -0.458245
    51  C   -0.170334
    53  C   -0.465121
    54  C   -0.169244
    56  F   -0.276674
    57  F   -0.352552
    58  F   -0.351262
    59  F   -0.351453
    60  F   -0.270810
    61  F   -0.277341
    62  F   -0.355756
    63  F   -0.351545
    64  F   -0.353773
    65  F   -0.277526
    66  F   -0.269620
    67  F   -0.351374
    68  F   -0.351219
    69  F   -0.352684
    70  F   -0.277136
    73  O   -0.535289
    74  C    0.396399
    75  C    0.405574
    76  C    0.045816
    78  S    0.019997
    79  S    0.021836
    80  C    0.044998
 Electronic spatial extent (au):  <R**2>=          65166.9193
 Charge=             -1.0000 electrons
 Dipole moment (field-independent basis, Debye):
    X=              0.0389    Y=              3.4596    Z=              1.5416  Tot=              3.7877
 Quadrupole moment (field-independent basis, Debye-Ang):
   XX=           -488.1839   YY=           -475.3446   ZZ=           -445.3091
   XY=              0.0224   XZ=              1.5892   YZ=             -0.0291
 Traceless Quadrupole moment (field-independent basis, Debye-Ang):
   XX=            -18.5714   YY=             -5.7321   ZZ=             24.3034
   XY=              0.0224   XZ=              1.5892   YZ=             -0.0291
 Octapole moment (field-independent basis, Debye-Ang**2):
  XXX=              9.7415  YYY=            -72.4114  ZZZ=             16.0781  XYY=             -4.0563
  XXY=            160.3692  XXZ=            -41.9325  XZZ=             -3.7673  YZZ=             31.5888
  YYZ=             72.7260  XYZ=             15.6158
 Hexadecapole moment (field-independent basis, Debye-Ang**3):
 XXXX=         -45834.5091 YYYY=         -40777.1860 ZZZZ=          -6317.2686 XXXY=             72.7467
 XXXZ=            -44.1961 YYYX=            -55.2146 YYYZ=            198.5898 ZZZX=            -10.4364
 ZZZY=            -94.5394 XXYY=         -12579.4492 XXZZ=          -8498.6334 YYZZ=          -7685.2901
 XXYZ=           -129.6642 YYXZ=             85.2401 ZZXY=            -21.9139
 N-N= 1.167088888198D+04 E-N=-3.402019750683D+04  KE= 4.430528071928D+03
 Unable to Open any file for archive entry.
 1\1\GINC-CCNN752\FOpt\RB3LYP\GenECP\C46H12F15N4Ni1O1S2(1-)\CPI\20-Oct-
 2021\0\\# opt b3lyp/genecp geom=connectivity scf=maxcyc=1000\\title\\-
 1,1\C,-1.2694568352,-2.4408539561,-0.9700763746\C,1.2532205269,2.88512
 65048,-0.2717287842\C,3.4115455847,2.5666098941,0.3040124548\C,2.70899
 00715,1.3093471304,0.2387681981\C,2.6444623733,-1.1405788256,0.0312157
 679\C,2.4070376719,-3.2438627899,-0.78336396\C,1.2063360531,-2.4684215
 809,-0.9716651994\C,-1.1944285208,2.9172362548,-0.2721591866\C,-2.4575
 596588,3.5944440499,-0.0827785444\C,-2.6791860732,-1.0783923396,0.0266
 423523\C,-3.3465763148,-2.3182893232,-0.1198561882\C,-2.6888562025,1.3
 734048172,0.2259940522\H,-4.3690937777,-2.5213202253,0.1657313718\H,-2
 .6165176221,4.6599773716,-0.1709147463\H,4.4545121217,2.6876506133,0.5
 622219955\N,1.3527606626,-1.214497502,-0.4510502122\N,-1.3887318063,-1
 .1823047331,-0.4534014746\N,1.3868034686,1.5308068462,-0.1150991182\N,
 -1.3580956165,1.565611439,-0.1114193853\C,2.5255649436,3.5367023575,-0
 .0559533901\H,2.7028620085,4.6008121664,-0.1275284135\C,3.2848695597,-
 2.3941814505,-0.1193549165\H,4.3026544223,-2.6202075983,0.1658837213\C
 ,-2.4867539368,-3.1893228315,-0.7798277451\C,-3.3669004234,2.645005175
 8,0.2726856757\H,-4.4111946351,2.7884203815,0.5133951943\C,-0.03739725
 72,-2.94418712,-1.5586939935\C,-3.2935887413,0.1379313549,0.3880416216
 \C,3.2845370994,0.0599418914,0.4007751819\C,0.0378277748,3.5590623962,
 -0.4463084453\C,4.7010973092,-0.0237798196,0.8710314576\C,5.786859039,
 0.0921574201,-0.0045512945\C,5.0073782528,-0.2399874628,2.2195419694\C
 ,7.1082613216,0.0045041879,0.4308112189\C,6.3195852486,-0.333304788,2.
 6806420482\C,7.3744397455,-0.2100518268,1.7804385436\C,0.0656157929,5.
 035284998,-0.6613848985\C,0.284779738,5.5819893078,-1.93296654\C,-0.11
 1742197,5.9533309558,0.3822680478\C,0.3235235518,6.9566570654,-2.16175
 05717\C,-0.0820134241,7.3323354053,0.1809359222\C,0.1371898443,7.83574
 4754,-1.0984880161\C,-4.7151547451,0.0888024923,0.8483402979\C,-5.7917
 545729,0.2089541889,-0.0378874819\C,-5.0357827579,-0.0968987032,2.1980
 129724\C,-7.1178692574,0.153816416,0.3883070245\C,-6.3530439846,-0.157
 4825322,2.6501723819\C,-7.3984168172,-0.0311757174,1.7394169264\Ni,-0.
 0020219772,0.1809742643,-0.3020687978\C,-2.8172028866,-4.5781847325,-1
 .090283293\C,-3.0755349555,-6.6929562784,-2.0794043298\H,-1.7580031223
 ,-5.0882514529,-2.890654848\C,2.707750725,-4.6382656752,-1.0990696875\
 C,2.9215869135,-6.7538808886,-2.0969468022\H,1.6385242204,-5.118377076
 1,-2.9017783003\F,4.0213542235,-0.3606179498,3.1229646352\F,6.57634589
 02,-0.5366844173,3.9847167359\F,8.643179971,-0.2950467378,2.2123520793
 \F,8.1270716382,0.125270583,-0.4386413931\F,5.5776797832,0.297249143,-
 1.3152686332\F,0.4629175426,4.7744204385,-2.9910927612\F,0.5332301722,
 7.4421559545,-3.3983611759\F,0.1698619521,9.1625517728,-1.3053344031\F
 ,-0.255733806,8.181248267,1.2102675847\F,-0.3115462153,5.5170483729,1.
 6376761145\F,-5.5686544856,0.3874142001,-1.3502483947\F,-8.1275163231,
 0.2781222208,-0.491314417\F,-8.6718379244,-0.0847426083,2.1625191391\F
 ,-6.6236070533,-0.3326289401,3.9555455447\F,-4.0591784441,-0.219879901
 1,3.1112772342\H,2.7339222225,-7.5232690208,-2.8387068766\H,-2.9039859
 531,-7.4692325115,-2.8178840178\O,-0.0476010028,-3.8042163679,-2.45977
 63931\C,2.3286845738,-5.4568632108,-2.1426717053\C,-2.4552605434,-5.40
 89848068,-2.1303182822\C,-3.9115959211,-6.8487772195,-1.0044195083\H,-
 4.4971739954,-7.7147237031,-0.7257115069\S,-3.9440476911,-5.4198019755
 ,-0.0232324279\S,3.8160125125,-5.5080279263,-0.0351608022\C,3.75373301
 64,-6.9318532135,-1.0223521679\H,4.3206654251,-7.8111914741,-0.7470459
 103\\Version=ES64L-G16RevC.01\State=1-A\HF=-4517.8015118\RMSD=5.562e-0
 9\RMSF=1.980e-06\Dipole=0.0152503,1.3494446,0.6319883\Quadrupole=-13.7
 991605,-4.2529474,18.0521079,-0.0221127,1.2875473,-0.4403993\PG=C01 [X
 (C46H12F15N4Ni1O1S2)]\\@
 The archive entry for this job was punched.


 A MAN THINKING OR WORKING IS ALWAYS ALONE, 
 LET HIM BE WHERE HE WILL.

                                    -- THOREAU
 Job cpu time:       5 days  5 hours 17 minutes 42.5 seconds.
 Elapsed time:       0 days  7 hours 50 minutes 26.0 seconds.
 File lengths (MBytes):  RWF=   1014 Int=      0 D2E=      0 Chk=    125 Scr=      1
 Normal termination of Gaussian 16 at Wed Oct 20 23:25:15 2021.
