 Entering Gaussian System, Link 0=/local/apl/lx/g16c01/g16/._.g16
 Initial command:
 /local/apl/lx/g16c01/g16/l1.exe "/work/users/cpi/4775827.cccms1/Gau-50266.inp" -scrdir="/work/users/cpi/4775827.cccms1/"
 Default CPUs for threads: 0,1,2,3,4,5,6,7,8,9,10,11,12,13,14,15,16,17
 Default is to use a total of  18 processors:
                               18 via shared-memory
                                1 via Linda
 Entering Link 1 = /local/apl/lx/g16c01/g16/l1.exe PID=     50267.
  
 Copyright (c) 1988-2019, Gaussian, Inc.  All Rights Reserved.
  
 This is part of the Gaussian(R) 16 program.  It is based on
 the Gaussian(R) 09 system (copyright 2009, Gaussian, Inc.),
 the Gaussian(R) 03 system (copyright 2003, Gaussian, Inc.),
 the Gaussian(R) 98 system (copyright 1998, Gaussian, Inc.),
 the Gaussian(R) 94 system (copyright 1995, Gaussian, Inc.),
 the Gaussian 92(TM) system (copyright 1992, Gaussian, Inc.),
 the Gaussian 90(TM) system (copyright 1990, Gaussian, Inc.),
 the Gaussian 88(TM) system (copyright 1988, Gaussian, Inc.),
 the Gaussian 86(TM) system (copyright 1986, Carnegie Mellon
 University), and the Gaussian 82(TM) system (copyright 1983,
 Carnegie Mellon University). Gaussian is a federally registered
 trademark of Gaussian, Inc.
  
 This software contains proprietary and confidential information,
 including trade secrets, belonging to Gaussian, Inc.
  
 This software is provided under written license and may be
 used, copied, transmitted, or stored only in accord with that
 written license.
  
 The following legend is applicable only to US Government
 contracts under FAR:
  
                    RESTRICTED RIGHTS LEGEND
  
 Use, reproduction and disclosure by the US Government is
 subject to restrictions as set forth in subparagraphs (a)
 and (c) of the Commercial Computer Software - Restricted
 Rights clause in FAR 52.227-19.
  
 Gaussian, Inc.
 340 Quinnipiac St., Bldg. 40, Wallingford CT 06492
  
  
 ---------------------------------------------------------------
 Warning -- This program may not be used in any manner that
 competes with the business of Gaussian, Inc. or will provide
 assistance to any competitor of Gaussian, Inc.  The licensee
 of this program is prohibited from giving any competitor of
 Gaussian, Inc. access to this program.  By using this program,
 the user acknowledges that Gaussian, Inc. is engaged in the
 business of creating and licensing software in the field of
 computational chemistry and represents and warrants to the
 licensee that it is not a competitor of Gaussian, Inc. and that
 it will not use this program in any manner prohibited above.
 ---------------------------------------------------------------
  

 Cite this work as:
 Gaussian 16, Revision C.01,
 M. J. Frisch, G. W. Trucks, H. B. Schlegel, G. E. Scuseria, 
 M. A. Robb, J. R. Cheeseman, G. Scalmani, V. Barone, 
 G. A. Petersson, H. Nakatsuji, X. Li, M. Caricato, A. V. Marenich, 
 J. Bloino, B. G. Janesko, R. Gomperts, B. Mennucci, H. P. Hratchian, 
 J. V. Ortiz, A. F. Izmaylov, J. L. Sonnenberg, D. Williams-Young, 
 F. Ding, F. Lipparini, F. Egidi, J. Goings, B. Peng, A. Petrone, 
 T. Henderson, D. Ranasinghe, V. G. Zakrzewski, J. Gao, N. Rega, 
 G. Zheng, W. Liang, M. Hada, M. Ehara, K. Toyota, R. Fukuda, 
 J. Hasegawa, M. Ishida, T. Nakajima, Y. Honda, O. Kitao, H. Nakai, 
 T. Vreven, K. Throssell, J. A. Montgomery, Jr., J. E. Peralta, 
 F. Ogliaro, M. J. Bearpark, J. J. Heyd, E. N. Brothers, K. N. Kudin, 
 V. N. Staroverov, T. A. Keith, R. Kobayashi, J. Normand, 
 K. Raghavachari, A. P. Rendell, J. C. Burant, S. S. Iyengar, 
 J. Tomasi, M. Cossi, J. M. Millam, M. Klene, C. Adamo, R. Cammi, 
 J. W. Ochterski, R. L. Martin, K. Morokuma, O. Farkas, 
 J. B. Foresman, and D. J. Fox, Gaussian, Inc., Wallingford CT, 2019.
 
 ******************************************
 Gaussian 16:  ES64L-G16RevC.01  3-Jul-2019
                20-Oct-2021 
 ******************************************
 %mem=100GB
 %nprocshare=16
 Will use up to   16 processors via shared memory.
 %chk=Ni_3C6F5_Por_thiophene_O-.chk
 ----------------------------------------------------
 # opt b3lyp/genecp geom=connectivity scf=maxcyc=1000
 ----------------------------------------------------
 1/18=20,19=15,26=3,38=1,57=2/1,3;
 2/9=110,12=2,17=6,18=5,40=1/2;
 3/5=7,11=2,16=1,17=8,25=1,30=1,71=1,74=-5/1,2,3;
 4//1;
 5/5=2,7=1000,38=5/2;
 6/7=2,8=2,9=2,10=2,28=1/1;
 7//1,2,3,16;
 1/18=20,19=15,26=3/3(2);
 2/9=110/2;
 99//99;
 2/9=110/2;
 3/5=7,6=1,11=2,16=1,17=8,25=1,30=1,71=1,74=-5,82=7/1,2,3;
 4/5=5,16=3,69=1/1;
 5/5=2,7=1000,38=5/2;
 7//1,2,3,16;
 1/18=20,19=15,26=3/3(-5);
 2/9=110/2;
 6/7=2,8=2,9=2,10=2,19=2,28=1/1;
 99/9=1/99;
 -----
 title
 -----
 Symbolic Z-matrix:
 Charge = -1 Multiplicity = 1
 C                    -1.24967  -2.33664  -0.92263 
 C                     1.20955   2.7929   -0.29982 
 C                     3.4644    2.57969   0.29687 
 C                     2.75834   1.23611   0.24225 
 C                     2.65026  -1.06998   0.12712 
 C                     2.35638  -3.09248  -0.71858 
 C                     1.18761  -2.3736   -0.9094 
 C                    -1.14887   2.86192  -0.20508 
 C                    -2.48889   3.58896   0.00936 
 C                    -2.68511  -0.99655   0.11247 
 C                    -3.28508  -2.24465   0.013 
 C                    -2.7325    1.314     0.28681 
 H                    -4.2332   -2.53933   0.40742 
 H                    -2.65123   4.63971  -0.09204 
 H                     4.47479   2.75715   0.59957 
 N                     1.30348  -1.15183  -0.38376 
 N                    -1.33322  -1.11089  -0.38886 
 N                     1.34608   1.47561  -0.1357 
 N                    -1.31317   1.52164  -0.06699 
 C                     2.56853   3.49739  -0.10175 
 H                     2.75583   4.54019  -0.22997 
 C                     3.22553  -2.32538   0.03145 
 H                     4.16173  -2.64076   0.43802 
 C                    -2.43062  -3.03262  -0.73371 
 C                    -3.41135   2.67612   0.35679 
 H                    -4.42579   2.86667   0.63103 
 C                    -0.03336  -2.9204   -1.56259 
 C                    -3.316     0.13678   0.52357 
 C                     3.31096   0.05231   0.51845 
 C                     0.04199   3.48949  -0.51409 
 C                     4.66341  -0.07395   1.21603 
 C                     5.80653   0.17391   0.46692 
 C                     4.76003  -0.43955   2.56807 
 C                     7.06535  -0.00258   1.04175 
 C                     6.02189  -0.52273   3.17174 
 C                     7.17586  -0.32991   2.3999 
 C                     0.06913   4.94577  -1.01713 
 C                     0.318     5.23316  -2.37522 
 C                    -0.15531   5.98579  -0.11645 
 C                     0.29509   6.56503  -2.82159 
 C                    -0.08489   7.31608  -0.54766 
 C                     0.11712   7.60655  -1.90249 
 C                    -4.68102   0.03666   1.19034 
 C                    -5.80908   0.30581   0.42581 
 C                    -4.7979   -0.32691   2.53827 
 C                    -7.07731   0.15703   0.98736 
 C                    -6.06575  -0.38122   3.12882 
 C                    -7.20782  -0.16456   2.34523 
 Ni                    0.00555   0.1815   -0.26237 
 C                    -2.74528  -4.44185  -1.21195 
 C                    -2.96199  -6.42788  -2.55272 
 H                    -1.58044  -4.60848  -3.0246 
 F                     3.64457  -0.66692   3.29822 
 F                     6.12707  -0.7788    4.4942 
 F                     8.39454  -0.45917   2.96289 
 F                     8.17153   0.13226   0.28284 
 F                     5.68902   0.53458  -0.82737 
 F                     0.53159   4.23306  -3.25878 
 F                     0.43466   6.84474  -4.13633 
 F                     0.14024   8.89007  -2.3212 
 F                    -0.20187   8.31939   0.34687 
 F                    -0.39377   5.70564   1.18123 
 F                    -5.67055   0.65948  -0.86906 
 F                    -8.17317   0.31295   0.21704 
 F                    -8.43373  -0.2651    2.89718 
 F                    -6.18806  -0.63186   4.45036 
 F                    -3.69382  -0.57897   3.27704 
 H                    -2.76358  -7.07189  -3.38242 
 O                    -0.04129  -3.81909  -2.44618 
 C                    -2.28994  -5.04222  -2.34629 
 C                    -3.84959  -6.722    -1.56145 
 H                    -4.50038  -7.56538  -1.55142 
 S                    -3.79502  -5.51256  -0.28762 
 H                     2.55807  -4.08873  -1.05279 
 

 GradGradGradGradGradGradGradGradGradGradGradGradGradGradGradGradGradGrad
 Berny optimization.
 Initialization pass.
                           ----------------------------
                           !    Initial Parameters    !
                           ! (Angstroms and Degrees)  !
 --------------------------                            --------------------------
 ! Name  Definition              Value          Derivative Info.                !
 --------------------------------------------------------------------------------
 ! R1    R(1,17)                 1.3395         estimate D2E/DX2                !
 ! R2    R(1,24)                 1.3837         estimate D2E/DX2                !
 ! R3    R(1,27)                 1.4932         estimate D2E/DX2                !
 ! R4    R(2,18)                 1.3345         estimate D2E/DX2                !
 ! R5    R(2,20)                 1.5435         estimate D2E/DX2                !
 ! R6    R(2,30)                 1.3764         estimate D2E/DX2                !
 ! R7    R(3,4)                  1.5188         estimate D2E/DX2                !
 ! R8    R(3,15)                 1.0696         estimate D2E/DX2                !
 ! R9    R(3,20)                 1.343          estimate D2E/DX2                !
 ! R10   R(4,18)                 1.4814         estimate D2E/DX2                !
 ! R11   R(4,29)                 1.3353         estimate D2E/DX2                !
 ! R12   R(5,16)                 1.4427         estimate D2E/DX2                !
 ! R13   R(5,22)                 1.3842         estimate D2E/DX2                !
 ! R14   R(5,29)                 1.3599         estimate D2E/DX2                !
 ! R15   R(6,7)                  1.3854         estimate D2E/DX2                !
 ! R16   R(6,22)                 1.3807         estimate D2E/DX2                !
 ! R17   R(6,74)                 1.07           estimate D2E/DX2                !
 ! R18   R(7,16)                 1.3351         estimate D2E/DX2                !
 ! R19   R(7,27)                 1.4888         estimate D2E/DX2                !
 ! R20   R(8,9)                  1.5395         estimate D2E/DX2                !
 ! R21   R(8,19)                 1.3574         estimate D2E/DX2                !
 ! R22   R(8,30)                 1.3811         estimate D2E/DX2                !
 ! R23   R(9,14)                 1.068          estimate D2E/DX2                !
 ! R24   R(9,25)                 1.3435         estimate D2E/DX2                !
 ! R25   R(10,11)                1.3884         estimate D2E/DX2                !
 ! R26   R(10,17)                1.4464         estimate D2E/DX2                !
 ! R27   R(10,28)                1.3607         estimate D2E/DX2                !
 ! R28   R(11,13)                1.0683         estimate D2E/DX2                !
 ! R29   R(11,24)                1.3815         estimate D2E/DX2                !
 ! R30   R(12,19)                1.4774         estimate D2E/DX2                !
 ! R31   R(12,25)                1.5235         estimate D2E/DX2                !
 ! R32   R(12,28)                1.3351         estimate D2E/DX2                !
 ! R33   R(16,49)                1.8647         estimate D2E/DX2                !
 ! R34   R(17,49)                1.8651         estimate D2E/DX2                !
 ! R35   R(18,49)                1.8676         estimate D2E/DX2                !
 ! R36   R(19,49)                1.8903         estimate D2E/DX2                !
 ! R37   R(20,21)                1.0672         estimate D2E/DX2                !
 ! R38   R(22,23)                1.0683         estimate D2E/DX2                !
 ! R39   R(24,50)                1.5211         estimate D2E/DX2                !
 ! R40   R(25,26)                1.068          estimate D2E/DX2                !
 ! R41   R(27,69)                1.2603         estimate D2E/DX2                !
 ! R42   R(28,43)                1.5225         estimate D2E/DX2                !
 ! R43   R(29,31)                1.527          estimate D2E/DX2                !
 ! R44   R(30,37)                1.5409         estimate D2E/DX2                !
 ! R45   R(31,32)                1.389          estimate D2E/DX2                !
 ! R46   R(31,33)                1.4039         estimate D2E/DX2                !
 ! R47   R(32,34)                1.3951         estimate D2E/DX2                !
 ! R48   R(32,57)                1.3487         estimate D2E/DX2                !
 ! R49   R(33,35)                1.4013         estimate D2E/DX2                !
 ! R50   R(33,53)                1.3524         estimate D2E/DX2                !
 ! R51   R(34,36)                1.4014         estimate D2E/DX2                !
 ! R52   R(34,56)                1.3482         estimate D2E/DX2                !
 ! R53   R(35,36)                1.4016         estimate D2E/DX2                !
 ! R54   R(35,54)                1.3511         estimate D2E/DX2                !
 ! R55   R(36,55)                1.3486         estimate D2E/DX2                !
 ! R56   R(37,38)                1.4103         estimate D2E/DX2                !
 ! R57   R(37,39)                1.394          estimate D2E/DX2                !
 ! R58   R(38,40)                1.4049         estimate D2E/DX2                !
 ! R59   R(38,58)                1.3515         estimate D2E/DX2                !
 ! R60   R(39,41)                1.4002         estimate D2E/DX2                !
 ! R61   R(39,62)                1.3488         estimate D2E/DX2                !
 ! R62   R(40,42)                1.4004         estimate D2E/DX2                !
 ! R63   R(40,59)                1.3514         estimate D2E/DX2                !
 ! R64   R(41,42)                1.4003         estimate D2E/DX2                !
 ! R65   R(41,61)                1.3493         estimate D2E/DX2                !
 ! R66   R(42,60)                1.3503         estimate D2E/DX2                !
 ! R67   R(43,44)                1.3891         estimate D2E/DX2                !
 ! R68   R(43,45)                1.401          estimate D2E/DX2                !
 ! R69   R(44,46)                1.3949         estimate D2E/DX2                !
 ! R70   R(44,63)                1.3494         estimate D2E/DX2                !
 ! R71   R(45,47)                1.3997         estimate D2E/DX2                !
 ! R72   R(45,67)                1.3522         estimate D2E/DX2                !
 ! R73   R(46,48)                1.4015         estimate D2E/DX2                !
 ! R74   R(46,64)                1.3486         estimate D2E/DX2                !
 ! R75   R(47,48)                1.4019         estimate D2E/DX2                !
 ! R76   R(47,66)                1.3506         estimate D2E/DX2                !
 ! R77   R(48,65)                1.3482         estimate D2E/DX2                !
 ! R78   R(50,70)                1.3618         estimate D2E/DX2                !
 ! R79   R(50,73)                1.7615         estimate D2E/DX2                !
 ! R80   R(51,68)                1.0689         estimate D2E/DX2                !
 ! R81   R(51,70)                1.5538         estimate D2E/DX2                !
 ! R82   R(51,71)                1.3627         estimate D2E/DX2                !
 ! R83   R(52,70)                1.0731         estimate D2E/DX2                !
 ! R84   R(71,72)                1.0653         estimate D2E/DX2                !
 ! R85   R(71,73)                1.7574         estimate D2E/DX2                !
 ! A1    A(17,1,24)            110.6473         estimate D2E/DX2                !
 ! A2    A(17,1,27)            125.4021         estimate D2E/DX2                !
 ! A3    A(24,1,27)            123.8527         estimate D2E/DX2                !
 ! A4    A(18,2,20)            110.1629         estimate D2E/DX2                !
 ! A5    A(18,2,30)            127.2673         estimate D2E/DX2                !
 ! A6    A(20,2,30)            122.4022         estimate D2E/DX2                !
 ! A7    A(4,3,15)             126.5917         estimate D2E/DX2                !
 ! A8    A(4,3,20)             106.4821         estimate D2E/DX2                !
 ! A9    A(15,3,20)            126.9253         estimate D2E/DX2                !
 ! A10   A(3,4,18)             108.019          estimate D2E/DX2                !
 ! A11   A(3,4,29)             125.7631         estimate D2E/DX2                !
 ! A12   A(18,4,29)            126.2006         estimate D2E/DX2                !
 ! A13   A(16,5,22)            108.1809         estimate D2E/DX2                !
 ! A14   A(16,5,29)            127.033          estimate D2E/DX2                !
 ! A15   A(22,5,29)            124.5031         estimate D2E/DX2                !
 ! A16   A(7,6,22)             108.5179         estimate D2E/DX2                !
 ! A17   A(7,6,74)             126.8094         estimate D2E/DX2                !
 ! A18   A(22,6,74)            124.6314         estimate D2E/DX2                !
 ! A19   A(6,7,16)             110.3295         estimate D2E/DX2                !
 ! A20   A(6,7,27)             124.1765         estimate D2E/DX2                !
 ! A21   A(16,7,27)            125.453          estimate D2E/DX2                !
 ! A22   A(9,8,19)             110.2903         estimate D2E/DX2                !
 ! A23   A(9,8,30)             124.5462         estimate D2E/DX2                !
 ! A24   A(19,8,30)            125.1563         estimate D2E/DX2                !
 ! A25   A(8,9,14)             125.7092         estimate D2E/DX2                !
 ! A26   A(8,9,25)             108.2271         estimate D2E/DX2                !
 ! A27   A(14,9,25)            126.0611         estimate D2E/DX2                !
 ! A28   A(11,10,17)           107.9393         estimate D2E/DX2                !
 ! A29   A(11,10,28)           124.7526         estimate D2E/DX2                !
 ! A30   A(17,10,28)           127.152          estimate D2E/DX2                !
 ! A31   A(10,11,13)           127.2305         estimate D2E/DX2                !
 ! A32   A(10,11,24)           106.5102         estimate D2E/DX2                !
 ! A33   A(13,11,24)           126.2367         estimate D2E/DX2                !
 ! A34   A(19,12,25)           108.2653         estimate D2E/DX2                !
 ! A35   A(19,12,28)           125.8922         estimate D2E/DX2                !
 ! A36   A(25,12,28)           125.8361         estimate D2E/DX2                !
 ! A37   A(5,16,7)             105.8044         estimate D2E/DX2                !
 ! A38   A(5,16,49)            125.8828         estimate D2E/DX2                !
 ! A39   A(7,16,49)            128.2847         estimate D2E/DX2                !
 ! A40   A(1,17,10)            105.59           estimate D2E/DX2                !
 ! A41   A(1,17,49)            128.0487         estimate D2E/DX2                !
 ! A42   A(10,17,49)           126.3432         estimate D2E/DX2                !
 ! A43   A(2,18,4)             106.7675         estimate D2E/DX2                !
 ! A44   A(2,18,49)            127.0301         estimate D2E/DX2                !
 ! A45   A(4,18,49)            126.1257         estimate D2E/DX2                !
 ! A46   A(8,19,12)            106.2251         estimate D2E/DX2                !
 ! A47   A(8,19,49)            127.2351         estimate D2E/DX2                !
 ! A48   A(12,19,49)           126.5351         estimate D2E/DX2                !
 ! A49   A(2,20,3)             108.2714         estimate D2E/DX2                !
 ! A50   A(2,20,21)            125.8099         estimate D2E/DX2                !
 ! A51   A(3,20,21)            125.8929         estimate D2E/DX2                !
 ! A52   A(5,22,6)             106.2481         estimate D2E/DX2                !
 ! A53   A(5,22,23)            127.2756         estimate D2E/DX2                !
 ! A54   A(6,22,23)            126.4679         estimate D2E/DX2                !
 ! A55   A(1,24,11)            108.3468         estimate D2E/DX2                !
 ! A56   A(1,24,50)            126.8425         estimate D2E/DX2                !
 ! A57   A(11,24,50)           124.7798         estimate D2E/DX2                !
 ! A58   A(9,25,12)            106.8371         estimate D2E/DX2                !
 ! A59   A(9,25,26)            126.6819         estimate D2E/DX2                !
 ! A60   A(12,25,26)           126.4809         estimate D2E/DX2                !
 ! A61   A(1,27,7)             109.6579         estimate D2E/DX2                !
 ! A62   A(1,27,69)            125.0366         estimate D2E/DX2                !
 ! A63   A(7,27,69)            125.0756         estimate D2E/DX2                !
 ! A64   A(10,28,12)           118.569          estimate D2E/DX2                !
 ! A65   A(10,28,43)           119.5546         estimate D2E/DX2                !
 ! A66   A(12,28,43)           121.8379         estimate D2E/DX2                !
 ! A67   A(4,29,5)             118.1028         estimate D2E/DX2                !
 ! A68   A(4,29,31)            122.2994         estimate D2E/DX2                !
 ! A69   A(5,29,31)            119.5748         estimate D2E/DX2                !
 ! A70   A(2,30,8)             117.8158         estimate D2E/DX2                !
 ! A71   A(2,30,37)            120.9431         estimate D2E/DX2                !
 ! A72   A(8,30,37)            121.175          estimate D2E/DX2                !
 ! A73   A(29,31,32)           117.8905         estimate D2E/DX2                !
 ! A74   A(29,31,33)           121.4956         estimate D2E/DX2                !
 ! A75   A(32,31,33)           120.6117         estimate D2E/DX2                !
 ! A76   A(31,32,34)           119.8554         estimate D2E/DX2                !
 ! A77   A(31,32,57)           119.5748         estimate D2E/DX2                !
 ! A78   A(34,32,57)           120.5213         estimate D2E/DX2                !
 ! A79   A(31,33,35)           119.492          estimate D2E/DX2                !
 ! A80   A(31,33,53)           120.4608         estimate D2E/DX2                !
 ! A81   A(35,33,53)           120.0102         estimate D2E/DX2                !
 ! A82   A(32,34,36)           120.002          estimate D2E/DX2                !
 ! A83   A(32,34,56)           119.7194         estimate D2E/DX2                !
 ! A84   A(36,34,56)           120.2763         estimate D2E/DX2                !
 ! A85   A(33,35,36)           119.7349         estimate D2E/DX2                !
 ! A86   A(33,35,54)           120.1994         estimate D2E/DX2                !
 ! A87   A(36,35,54)           120.0642         estimate D2E/DX2                !
 ! A88   A(34,36,35)           120.0589         estimate D2E/DX2                !
 ! A89   A(34,36,55)           119.8815         estimate D2E/DX2                !
 ! A90   A(35,36,55)           120.0597         estimate D2E/DX2                !
 ! A91   A(30,37,38)           120.6676         estimate D2E/DX2                !
 ! A92   A(30,37,39)           119.4272         estimate D2E/DX2                !
 ! A93   A(38,37,39)           119.9052         estimate D2E/DX2                !
 ! A94   A(37,38,40)           119.7549         estimate D2E/DX2                !
 ! A95   A(37,38,58)           120.4416         estimate D2E/DX2                !
 ! A96   A(40,38,58)           119.7622         estimate D2E/DX2                !
 ! A97   A(37,39,41)           120.1154         estimate D2E/DX2                !
 ! A98   A(37,39,62)           119.6774         estimate D2E/DX2                !
 ! A99   A(41,39,62)           120.166          estimate D2E/DX2                !
 ! A100  A(38,40,42)           119.9083         estimate D2E/DX2                !
 ! A101  A(38,40,59)           120.2424         estimate D2E/DX2                !
 ! A102  A(42,40,59)           119.8476         estimate D2E/DX2                !
 ! A103  A(39,41,42)           120.1528         estimate D2E/DX2                !
 ! A104  A(39,41,61)           119.8634         estimate D2E/DX2                !
 ! A105  A(42,41,61)           119.9818         estimate D2E/DX2                !
 ! A106  A(40,42,41)           119.9381         estimate D2E/DX2                !
 ! A107  A(40,42,60)           120.0827         estimate D2E/DX2                !
 ! A108  A(41,42,60)           119.9791         estimate D2E/DX2                !
 ! A109  A(28,43,44)           118.3164         estimate D2E/DX2                !
 ! A110  A(28,43,45)           120.8797         estimate D2E/DX2                !
 ! A111  A(44,43,45)           120.8023         estimate D2E/DX2                !
 ! A112  A(43,44,46)           119.7428         estimate D2E/DX2                !
 ! A113  A(43,44,63)           119.706          estimate D2E/DX2                !
 ! A114  A(46,44,63)           120.5021         estimate D2E/DX2                !
 ! A115  A(43,45,47)           119.4444         estimate D2E/DX2                !
 ! A116  A(43,45,67)           120.3929         estimate D2E/DX2                !
 ! A117  A(47,45,67)           120.1238         estimate D2E/DX2                !
 ! A118  A(44,46,48)           119.9442         estimate D2E/DX2                !
 ! A119  A(44,46,64)           119.7698         estimate D2E/DX2                !
 ! A120  A(48,46,64)           120.2838         estimate D2E/DX2                !
 ! A121  A(45,47,48)           119.7422         estimate D2E/DX2                !
 ! A122  A(45,47,66)           120.1358         estimate D2E/DX2                !
 ! A123  A(48,47,66)           120.1203         estimate D2E/DX2                !
 ! A124  A(46,48,47)           120.0759         estimate D2E/DX2                !
 ! A125  A(46,48,65)           119.897          estimate D2E/DX2                !
 ! A126  A(47,48,65)           120.0271         estimate D2E/DX2                !
 ! A127  A(16,49,17)            89.9849         estimate D2E/DX2                !
 ! A128  A(16,49,18)            90.0153         estimate D2E/DX2                !
 ! A129  A(17,49,19)            89.8577         estimate D2E/DX2                !
 ! A130  A(18,49,19)            90.1421         estimate D2E/DX2                !
 ! A131  A(24,50,70)           126.9538         estimate D2E/DX2                !
 ! A132  A(24,50,73)           121.4302         estimate D2E/DX2                !
 ! A133  A(70,50,73)           111.6158         estimate D2E/DX2                !
 ! A134  A(68,51,70)           124.0659         estimate D2E/DX2                !
 ! A135  A(68,51,71)           123.7462         estimate D2E/DX2                !
 ! A136  A(70,51,71)           112.1825         estimate D2E/DX2                !
 ! A137  A(50,70,51)           111.0513         estimate D2E/DX2                !
 ! A138  A(50,70,52)           124.707          estimate D2E/DX2                !
 ! A139  A(51,70,52)           124.2234         estimate D2E/DX2                !
 ! A140  A(51,71,72)           125.143          estimate D2E/DX2                !
 ! A141  A(51,71,73)           111.0086         estimate D2E/DX2                !
 ! A142  A(72,71,73)           123.8469         estimate D2E/DX2                !
 ! A143  A(50,73,71)            93.2375         estimate D2E/DX2                !
 ! A144  L(16,49,19,18,-1)     180.1574         estimate D2E/DX2                !
 ! A145  L(17,49,18,19,-1)     179.9998         estimate D2E/DX2                !
 ! A146  L(16,49,19,18,-2)     182.2159         estimate D2E/DX2                !
 ! A147  L(17,49,18,19,-2)     179.9999         estimate D2E/DX2                !
 ! D1    D(24,1,17,10)          -3.0997         estimate D2E/DX2                !
 ! D2    D(24,1,17,49)         175.417          estimate D2E/DX2                !
 ! D3    D(27,1,17,10)        -179.6058         estimate D2E/DX2                !
 ! D4    D(27,1,17,49)          -1.089          estimate D2E/DX2                !
 ! D5    D(17,1,24,11)          -3.1449         estimate D2E/DX2                !
 ! D6    D(17,1,24,50)         178.8123         estimate D2E/DX2                !
 ! D7    D(27,1,24,11)         173.4258         estimate D2E/DX2                !
 ! D8    D(27,1,24,50)          -4.617          estimate D2E/DX2                !
 ! D9    D(17,1,27,7)           31.477          estimate D2E/DX2                !
 ! D10   D(17,1,27,69)        -153.8089         estimate D2E/DX2                !
 ! D11   D(24,1,27,7)         -144.5854         estimate D2E/DX2                !
 ! D12   D(24,1,27,69)          30.1288         estimate D2E/DX2                !
 ! D13   D(20,2,18,4)            2.8054         estimate D2E/DX2                !
 ! D14   D(20,2,18,49)         179.7578         estimate D2E/DX2                !
 ! D15   D(30,2,18,4)         -172.5369         estimate D2E/DX2                !
 ! D16   D(30,2,18,49)           4.4155         estimate D2E/DX2                !
 ! D17   D(18,2,20,3)           -5.4627         estimate D2E/DX2                !
 ! D18   D(18,2,20,21)         176.2995         estimate D2E/DX2                !
 ! D19   D(30,2,20,3)          170.1476         estimate D2E/DX2                !
 ! D20   D(30,2,20,21)          -8.0902         estimate D2E/DX2                !
 ! D21   D(18,2,30,8)           17.7371         estimate D2E/DX2                !
 ! D22   D(18,2,30,37)        -165.1856         estimate D2E/DX2                !
 ! D23   D(20,2,30,8)         -157.083          estimate D2E/DX2                !
 ! D24   D(20,2,30,37)          19.9943         estimate D2E/DX2                !
 ! D25   D(15,3,4,18)          175.8515         estimate D2E/DX2                !
 ! D26   D(15,3,4,29)           -2.7062         estimate D2E/DX2                !
 ! D27   D(20,3,4,18)           -3.8086         estimate D2E/DX2                !
 ! D28   D(20,3,4,29)          177.6337         estimate D2E/DX2                !
 ! D29   D(4,3,20,2)             5.3119         estimate D2E/DX2                !
 ! D30   D(4,3,20,21)         -176.4521         estimate D2E/DX2                !
 ! D31   D(15,3,20,2)         -174.3467         estimate D2E/DX2                !
 ! D32   D(15,3,20,21)           3.8893         estimate D2E/DX2                !
 ! D33   D(3,4,18,2)             0.3802         estimate D2E/DX2                !
 ! D34   D(3,4,18,49)         -176.6077         estimate D2E/DX2                !
 ! D35   D(29,4,18,2)          178.9298         estimate D2E/DX2                !
 ! D36   D(29,4,18,49)           1.9419         estimate D2E/DX2                !
 ! D37   D(3,4,29,5)          -164.8852         estimate D2E/DX2                !
 ! D38   D(3,4,29,31)           13.3613         estimate D2E/DX2                !
 ! D39   D(18,4,29,5)           16.8145         estimate D2E/DX2                !
 ! D40   D(18,4,29,31)        -164.939          estimate D2E/DX2                !
 ! D41   D(22,5,16,7)           -7.6286         estimate D2E/DX2                !
 ! D42   D(22,5,16,49)         170.5718         estimate D2E/DX2                !
 ! D43   D(29,5,16,7)          166.4373         estimate D2E/DX2                !
 ! D44   D(29,5,16,49)         -15.3623         estimate D2E/DX2                !
 ! D45   D(16,5,22,6)            9.8091         estimate D2E/DX2                !
 ! D46   D(16,5,22,23)        -171.1994         estimate D2E/DX2                !
 ! D47   D(29,5,22,6)         -164.4433         estimate D2E/DX2                !
 ! D48   D(29,5,22,23)          14.5482         estimate D2E/DX2                !
 ! D49   D(16,5,29,4)          -10.2325         estimate D2E/DX2                !
 ! D50   D(16,5,29,31)         171.4717         estimate D2E/DX2                !
 ! D51   D(22,5,29,4)          162.9222         estimate D2E/DX2                !
 ! D52   D(22,5,29,31)         -15.3736         estimate D2E/DX2                !
 ! D53   D(22,6,7,16)            3.7399         estimate D2E/DX2                !
 ! D54   D(22,6,7,27)         -174.0408         estimate D2E/DX2                !
 ! D55   D(74,6,7,16)         -178.523          estimate D2E/DX2                !
 ! D56   D(74,6,7,27)            3.6962         estimate D2E/DX2                !
 ! D57   D(7,6,22,5)            -8.4053         estimate D2E/DX2                !
 ! D58   D(7,6,22,23)          172.5926         estimate D2E/DX2                !
 ! D59   D(74,6,22,5)          173.7966         estimate D2E/DX2                !
 ! D60   D(74,6,22,23)          -5.2056         estimate D2E/DX2                !
 ! D61   D(6,7,16,5)             2.3638         estimate D2E/DX2                !
 ! D62   D(6,7,16,49)         -175.7786         estimate D2E/DX2                !
 ! D63   D(27,7,16,5)         -179.8901         estimate D2E/DX2                !
 ! D64   D(27,7,16,49)           1.9675         estimate D2E/DX2                !
 ! D65   D(6,7,27,1)           145.498          estimate D2E/DX2                !
 ! D66   D(6,7,27,69)          -29.2136         estimate D2E/DX2                !
 ! D67   D(16,7,27,1)          -31.9472         estimate D2E/DX2                !
 ! D68   D(16,7,27,69)         153.3412         estimate D2E/DX2                !
 ! D69   D(19,8,9,14)         -176.6353         estimate D2E/DX2                !
 ! D70   D(19,8,9,25)            3.9199         estimate D2E/DX2                !
 ! D71   D(30,8,9,14)            2.4382         estimate D2E/DX2                !
 ! D72   D(30,8,9,25)         -177.0065         estimate D2E/DX2                !
 ! D73   D(9,8,19,12)           -1.9818         estimate D2E/DX2                !
 ! D74   D(9,8,19,49)          178.7644         estimate D2E/DX2                !
 ! D75   D(30,8,19,12)         178.9516         estimate D2E/DX2                !
 ! D76   D(30,8,19,49)          -0.3023         estimate D2E/DX2                !
 ! D77   D(9,8,30,2)           161.554          estimate D2E/DX2                !
 ! D78   D(9,8,30,37)          -15.5162         estimate D2E/DX2                !
 ! D79   D(19,8,30,2)          -19.5088         estimate D2E/DX2                !
 ! D80   D(19,8,30,37)         163.421          estimate D2E/DX2                !
 ! D81   D(8,9,25,12)           -3.8603         estimate D2E/DX2                !
 ! D82   D(8,9,25,26)          176.0607         estimate D2E/DX2                !
 ! D83   D(14,9,25,12)         176.6975         estimate D2E/DX2                !
 ! D84   D(14,9,25,26)          -3.3816         estimate D2E/DX2                !
 ! D85   D(17,10,11,13)        171.5661         estimate D2E/DX2                !
 ! D86   D(17,10,11,24)        -10.0876         estimate D2E/DX2                !
 ! D87   D(28,10,11,13)        -12.7037         estimate D2E/DX2                !
 ! D88   D(28,10,11,24)        165.6426         estimate D2E/DX2                !
 ! D89   D(11,10,17,1)           8.2187         estimate D2E/DX2                !
 ! D90   D(11,10,17,49)       -170.3312         estimate D2E/DX2                !
 ! D91   D(28,10,17,1)        -167.3796         estimate D2E/DX2                !
 ! D92   D(28,10,17,49)         14.0705         estimate D2E/DX2                !
 ! D93   D(11,10,28,12)       -164.7712         estimate D2E/DX2                !
 ! D94   D(11,10,28,43)         13.013          estimate D2E/DX2                !
 ! D95   D(17,10,28,12)         10.1301         estimate D2E/DX2                !
 ! D96   D(17,10,28,43)       -172.0856         estimate D2E/DX2                !
 ! D97   D(10,11,24,1)           8.2434         estimate D2E/DX2                !
 ! D98   D(10,11,24,50)       -173.6636         estimate D2E/DX2                !
 ! D99   D(13,11,24,1)        -173.3891         estimate D2E/DX2                !
 ! D100  D(13,11,24,50)          4.7039         estimate D2E/DX2                !
 ! D101  D(25,12,19,8)          -0.3307         estimate D2E/DX2                !
 ! D102  D(25,12,19,49)        178.93           estimate D2E/DX2                !
 ! D103  D(28,12,19,8)        -179.4484         estimate D2E/DX2                !
 ! D104  D(28,12,19,49)         -0.1877         estimate D2E/DX2                !
 ! D105  D(19,12,25,9)           2.7968         estimate D2E/DX2                !
 ! D106  D(19,12,25,26)       -177.1244         estimate D2E/DX2                !
 ! D107  D(28,12,25,9)        -178.0849         estimate D2E/DX2                !
 ! D108  D(28,12,25,26)          1.9939         estimate D2E/DX2                !
 ! D109  D(19,12,28,10)        -16.8096         estimate D2E/DX2                !
 ! D110  D(19,12,28,43)        165.4593         estimate D2E/DX2                !
 ! D111  D(25,12,28,10)        164.2239         estimate D2E/DX2                !
 ! D112  D(25,12,28,43)        -13.5072         estimate D2E/DX2                !
 ! D113  D(5,16,49,17)        -154.8724         estimate D2E/DX2                !
 ! D114  D(5,16,49,18)          25.1276         estimate D2E/DX2                !
 ! D115  D(7,16,49,17)          22.9214         estimate D2E/DX2                !
 ! D116  D(7,16,49,18)        -157.0786         estimate D2E/DX2                !
 ! D117  D(1,17,49,16)         -23.258          estimate D2E/DX2                !
 ! D118  D(1,17,49,19)         158.9579         estimate D2E/DX2                !
 ! D119  D(10,17,49,16)        154.9682         estimate D2E/DX2                !
 ! D120  D(10,17,49,19)        -22.8159         estimate D2E/DX2                !
 ! D121  D(2,18,49,16)         164.3895         estimate D2E/DX2                !
 ! D122  D(2,18,49,19)         -17.8264         estimate D2E/DX2                !
 ! D123  D(4,18,49,16)         -19.2239         estimate D2E/DX2                !
 ! D124  D(4,18,49,19)         158.5603         estimate D2E/DX2                !
 ! D125  D(8,19,49,17)        -164.1022         estimate D2E/DX2                !
 ! D126  D(8,19,49,18)          15.8978         estimate D2E/DX2                !
 ! D127  D(12,19,49,17)         16.7894         estimate D2E/DX2                !
 ! D128  D(12,19,49,18)       -163.2105         estimate D2E/DX2                !
 ! D129  D(1,24,50,70)         -32.7585         estimate D2E/DX2                !
 ! D130  D(1,24,50,73)         147.0945         estimate D2E/DX2                !
 ! D131  D(11,24,50,70)        149.5034         estimate D2E/DX2                !
 ! D132  D(11,24,50,73)        -30.6436         estimate D2E/DX2                !
 ! D133  D(10,28,43,44)       -100.3567         estimate D2E/DX2                !
 ! D134  D(10,28,43,45)         79.1971         estimate D2E/DX2                !
 ! D135  D(12,28,43,44)         77.3527         estimate D2E/DX2                !
 ! D136  D(12,28,43,45)       -103.0936         estimate D2E/DX2                !
 ! D137  D(4,29,31,32)         -76.1283         estimate D2E/DX2                !
 ! D138  D(4,29,31,33)         104.4119         estimate D2E/DX2                !
 ! D139  D(5,29,31,32)         102.0932         estimate D2E/DX2                !
 ! D140  D(5,29,31,33)         -77.3666         estimate D2E/DX2                !
 ! D141  D(2,30,37,38)          77.5606         estimate D2E/DX2                !
 ! D142  D(2,30,37,39)        -102.443          estimate D2E/DX2                !
 ! D143  D(8,30,37,38)        -105.4607         estimate D2E/DX2                !
 ! D144  D(8,30,37,39)          74.5356         estimate D2E/DX2                !
 ! D145  D(29,31,32,34)       -176.3988         estimate D2E/DX2                !
 ! D146  D(29,31,32,57)          1.0832         estimate D2E/DX2                !
 ! D147  D(33,31,32,34)          3.0661         estimate D2E/DX2                !
 ! D148  D(33,31,32,57)       -179.452          estimate D2E/DX2                !
 ! D149  D(29,31,33,35)       -179.018          estimate D2E/DX2                !
 ! D150  D(29,31,33,53)         -1.2303         estimate D2E/DX2                !
 ! D151  D(32,31,33,35)          1.5368         estimate D2E/DX2                !
 ! D152  D(32,31,33,53)        179.3245         estimate D2E/DX2                !
 ! D153  D(31,32,34,36)         -4.8613         estimate D2E/DX2                !
 ! D154  D(31,32,34,56)        174.591          estimate D2E/DX2                !
 ! D155  D(57,32,34,36)        177.6809         estimate D2E/DX2                !
 ! D156  D(57,32,34,56)         -2.8668         estimate D2E/DX2                !
 ! D157  D(31,33,35,36)         -4.3217         estimate D2E/DX2                !
 ! D158  D(31,33,35,54)        175.2341         estimate D2E/DX2                !
 ! D159  D(53,33,35,36)        177.8805         estimate D2E/DX2                !
 ! D160  D(53,33,35,54)         -2.5637         estimate D2E/DX2                !
 ! D161  D(32,34,36,35)          2.0618         estimate D2E/DX2                !
 ! D162  D(32,34,36,55)       -177.9443         estimate D2E/DX2                !
 ! D163  D(56,34,36,35)       -177.3874         estimate D2E/DX2                !
 ! D164  D(56,34,36,55)          2.6065         estimate D2E/DX2                !
 ! D165  D(33,35,36,34)          2.5426         estimate D2E/DX2                !
 ! D166  D(33,35,36,55)       -177.4513         estimate D2E/DX2                !
 ! D167  D(54,35,36,34)       -177.0138         estimate D2E/DX2                !
 ! D168  D(54,35,36,55)          2.9923         estimate D2E/DX2                !
 ! D169  D(30,37,38,40)        177.9227         estimate D2E/DX2                !
 ! D170  D(30,37,38,58)          0.2666         estimate D2E/DX2                !
 ! D171  D(39,37,38,40)         -2.0736         estimate D2E/DX2                !
 ! D172  D(39,37,38,58)       -179.7297         estimate D2E/DX2                !
 ! D173  D(30,37,39,41)        177.6285         estimate D2E/DX2                !
 ! D174  D(30,37,39,62)         -0.0411         estimate D2E/DX2                !
 ! D175  D(38,37,39,41)         -2.3751         estimate D2E/DX2                !
 ! D176  D(38,37,39,62)        179.9553         estimate D2E/DX2                !
 ! D177  D(37,38,40,42)          4.3869         estimate D2E/DX2                !
 ! D178  D(37,38,40,59)       -175.1401         estimate D2E/DX2                !
 ! D179  D(58,38,40,42)       -177.941          estimate D2E/DX2                !
 ! D180  D(58,38,40,59)          2.532          estimate D2E/DX2                !
 ! D181  D(37,39,41,42)          4.5283         estimate D2E/DX2                !
 ! D182  D(37,39,41,61)       -174.9638         estimate D2E/DX2                !
 ! D183  D(62,39,41,42)       -177.8135         estimate D2E/DX2                !
 ! D184  D(62,39,41,61)          2.6943         estimate D2E/DX2                !
 ! D185  D(38,40,42,41)         -2.2586         estimate D2E/DX2                !
 ! D186  D(38,40,42,60)        177.734          estimate D2E/DX2                !
 ! D187  D(59,40,42,41)        177.2703         estimate D2E/DX2                !
 ! D188  D(59,40,42,60)         -2.7371         estimate D2E/DX2                !
 ! D189  D(39,41,42,40)         -2.1988         estimate D2E/DX2                !
 ! D190  D(39,41,42,60)        177.8086         estimate D2E/DX2                !
 ! D191  D(61,41,42,40)        177.2928         estimate D2E/DX2                !
 ! D192  D(61,41,42,60)         -2.6998         estimate D2E/DX2                !
 ! D193  D(28,43,44,46)        176.7465         estimate D2E/DX2                !
 ! D194  D(28,43,44,63)         -0.7187         estimate D2E/DX2                !
 ! D195  D(45,43,44,46)         -2.8076         estimate D2E/DX2                !
 ! D196  D(45,43,44,63)        179.7272         estimate D2E/DX2                !
 ! D197  D(28,43,45,47)        178.6072         estimate D2E/DX2                !
 ! D198  D(28,43,45,67)          0.872          estimate D2E/DX2                !
 ! D199  D(44,43,45,47)         -1.8502         estimate D2E/DX2                !
 ! D200  D(44,43,45,67)       -179.5854         estimate D2E/DX2                !
 ! D201  D(43,44,46,48)          4.8014         estimate D2E/DX2                !
 ! D202  D(43,44,46,64)       -174.6608         estimate D2E/DX2                !
 ! D203  D(63,44,46,48)       -177.7539         estimate D2E/DX2                !
 ! D204  D(63,44,46,64)          2.7839         estimate D2E/DX2                !
 ! D205  D(43,45,47,48)          4.4845         estimate D2E/DX2                !
 ! D206  D(43,45,47,66)       -175.041          estimate D2E/DX2                !
 ! D207  D(67,45,47,48)       -177.774          estimate D2E/DX2                !
 ! D208  D(67,45,47,66)          2.7004         estimate D2E/DX2                !
 ! D209  D(44,46,48,47)         -2.157          estimate D2E/DX2                !
 ! D210  D(44,46,48,65)        177.8312         estimate D2E/DX2                !
 ! D211  D(64,46,48,47)        177.3024         estimate D2E/DX2                !
 ! D212  D(64,46,48,65)         -2.7094         estimate D2E/DX2                !
 ! D213  D(45,47,48,46)         -2.5052         estimate D2E/DX2                !
 ! D214  D(45,47,48,65)        177.5066         estimate D2E/DX2                !
 ! D215  D(66,47,48,46)        177.0205         estimate D2E/DX2                !
 ! D216  D(66,47,48,65)         -2.9678         estimate D2E/DX2                !
 ! D217  D(24,50,70,51)       -173.8659         estimate D2E/DX2                !
 ! D218  D(24,50,70,52)          4.6274         estimate D2E/DX2                !
 ! D219  D(73,50,70,51)          6.2691         estimate D2E/DX2                !
 ! D220  D(73,50,70,52)       -175.2377         estimate D2E/DX2                !
 ! D221  D(24,50,73,71)        171.4646         estimate D2E/DX2                !
 ! D222  D(70,50,73,71)         -8.6618         estimate D2E/DX2                !
 ! D223  D(68,51,70,50)        179.3614         estimate D2E/DX2                !
 ! D224  D(68,51,70,52)          0.8595         estimate D2E/DX2                !
 ! D225  D(71,51,70,50)          0.1811         estimate D2E/DX2                !
 ! D226  D(71,51,70,52)       -178.3208         estimate D2E/DX2                !
 ! D227  D(68,51,71,72)         -6.1335         estimate D2E/DX2                !
 ! D228  D(68,51,71,73)        174.2855         estimate D2E/DX2                !
 ! D229  D(70,51,71,72)        173.0499         estimate D2E/DX2                !
 ! D230  D(70,51,71,73)         -6.5311         estimate D2E/DX2                !
 ! D231  D(51,71,73,50)          8.6917         estimate D2E/DX2                !
 ! D232  D(72,71,73,50)       -170.8958         estimate D2E/DX2                !
 --------------------------------------------------------------------------------
 Trust Radius=3.00D-01 FncErr=1.00D-07 GrdErr=1.00D-06 EigMax=2.50D+02 EigMin=1.00D-04
 Number of steps in this run=    444 maximum allowed number of steps=    444.
 GradGradGradGradGradGradGradGradGradGradGradGradGradGradGradGradGradGrad

 Stoichiometry    C42H10F15N4NiOS(1-)
 Framework group  C1[X(C42H10F15N4NiOS)]
 Deg. of freedom   216
 Full point group                 C1      NOp   1
 Largest Abelian subgroup         C1      NOp   1
 Largest concise Abelian subgroup C1      NOp   1
                         Standard orientation:                         
 ---------------------------------------------------------------------
 Center     Atomic      Atomic             Coordinates (Angstroms)
 Number     Number       Type             X           Y           Z
 ---------------------------------------------------------------------
      1          6           0       -1.903379   -2.235759   -1.386404
      2          6           0        2.160353    1.623805   -0.229840
      3          6           0        4.203089    0.580599    0.244257
      4          6           0        3.079993   -0.423469    0.051397
      5          6           0        2.189492   -2.519323   -0.345341
      6          6           0        1.224987   -4.192399   -1.423584
      7          6           0        0.373875   -3.100582   -1.476180
      8          6           0       -0.032348    2.477567   -0.032212
      9          6           0       -1.043488    3.582232    0.324893
     10          6           0       -2.798193   -0.634994   -0.135558
     11          6           0       -3.788720   -1.580347   -0.365283
     12          6           0       -2.052525    1.510137    0.326707
     13          1           0       -4.782295   -1.583977    0.027316
     14          1           0       -0.835808    4.629249    0.361660
     15          1           0        5.211733    0.362763    0.525694
     16          7           0        0.898518   -2.070868   -0.807705
     17          7           0       -1.564777   -1.135589   -0.701333
     18          7           0        1.836877    0.329146   -0.236550
     19          7           0       -0.646216    1.267178   -0.055456
     20          6           0        3.677436    1.791957   -0.000615
     21          1           0        4.211032    2.716187   -0.005524
     22          6           0        2.300666   -3.871559   -0.619601
     23          1           0        3.070376   -4.536732   -0.293523
     24          6           0       -3.252121   -2.507092   -1.238088
     25          6           0       -2.224363    3.000330    0.592949
     26          1           0       -3.113557    3.486851    0.929461
     27          6           0       -0.957392   -3.109306   -2.142563
     28          6           0       -3.004907    0.581234    0.438480
     29          6           0        3.192626   -1.749936    0.155635
     30          6           0        1.302856    2.697526   -0.308502
     31          6           0        4.416795   -2.418538    0.776964
     32          6           0        5.579231   -2.478454    0.019034
     33          6           0        4.375984   -2.968608    2.068001
     34          6           0        6.698816   -3.145951    0.516195
     35          6           0        5.530232   -3.554020    2.605245
     36          6           0        6.684134   -3.665901    1.817488
     37          6           0        1.829302    4.110277   -0.627106
     38          6           0        2.167974    4.470837   -1.947799
     39          6           0        1.970210    5.037420    0.404301
     40          6           0        2.604540    5.777340   -2.223689
     41          6           0        2.493845    6.308738    0.139487
     42          6           0        2.789519    6.687673   -1.175703
     43          6           0       -4.324867    0.864940    1.142108
     44          6           0       -5.288979    1.599084    0.463137
     45          6           0       -4.565558    0.389892    2.437930
     46          6           0       -6.534156    1.818312    1.052486
     47          6           0       -5.778173    0.693187    3.067781
     48          6           0       -6.773324    1.385696    2.363935
     49         28           0        0.134924   -0.403709   -0.469097
     50          6           0       -4.027943   -3.650007   -1.874878
     51          6           0       -4.905110   -5.250637   -3.442522
     52          1           0       -2.981940   -3.964286   -3.739668
     53          9           0        3.246634   -2.896543    2.808571
     54          9           0        5.535113   -4.001134    3.880240
     55          9           0        7.782234   -4.274227    2.310409
     56          9           0        7.787911   -3.297284   -0.264024
     57          9           0        5.598447   -1.933415   -1.214521
     58          9           0        2.030464    3.582321   -2.956835
     59          9           0        2.837676    6.162238   -3.497950
     60          9           0        3.252646    7.929875   -1.432039
     61          9           0        2.723172    7.165950    1.155898
     62          9           0        1.644081    4.687965    1.665586
     63          9           0       -5.031590    2.050617   -0.782189
     64          9           0       -7.506739    2.436814    0.352384
     65          9           0       -7.962178    1.636726    2.948081
     66          9           0       -5.985177    0.328601    4.351709
     67          9           0       -3.618009   -0.316814    3.094460
     68          1           0       -4.935225   -5.809408   -4.353231
     69          8           0       -1.268315   -3.828051   -3.130061
     70          6           0       -3.800278   -4.215663   -3.092542
     71          6           0       -5.844463   -5.352345   -2.460573
     72          1           0       -6.744696   -5.917823   -2.529328
     73         16           0       -5.385186   -4.411069   -1.049396
     74          1           0        1.075010   -5.145096   -1.887024
 ---------------------------------------------------------------------
 Rotational constants (GHZ):           0.0344580           0.0253543           0.0179204
 General basis read from cards:  (5D, 7F)
 ======================================================================================================
                                       Pseudopotential Parameters
 ======================================================================================================
  Center     Atomic      Valence      Angular      Power
  Number     Number     Electrons     Momentum     of R      Exponent        Coefficient   SO-Coeffient
 ======================================================================================================
    1          6
                                   No pseudopotential on this center.
    2          6
                                   No pseudopotential on this center.
    3          6
                                   No pseudopotential on this center.
    4          6
                                   No pseudopotential on this center.
    5          6
                                   No pseudopotential on this center.
    6          6
                                   No pseudopotential on this center.
    7          6
                                   No pseudopotential on this center.
    8          6
                                   No pseudopotential on this center.
    9          6
                                   No pseudopotential on this center.
   10          6
                                   No pseudopotential on this center.
   11          6
                                   No pseudopotential on this center.
   12          6
                                   No pseudopotential on this center.
   13          1
                                   No pseudopotential on this center.
   14          1
                                   No pseudopotential on this center.
   15          1
                                   No pseudopotential on this center.
   16          7
                                   No pseudopotential on this center.
   17          7
                                   No pseudopotential on this center.
   18          7
                                   No pseudopotential on this center.
   19          7
                                   No pseudopotential on this center.
   20          6
                                   No pseudopotential on this center.
   21          1
                                   No pseudopotential on this center.
   22          6
                                   No pseudopotential on this center.
   23          1
                                   No pseudopotential on this center.
   24          6
                                   No pseudopotential on this center.
   25          6
                                   No pseudopotential on this center.
   26          1
                                   No pseudopotential on this center.
   27          6
                                   No pseudopotential on this center.
   28          6
                                   No pseudopotential on this center.
   29          6
                                   No pseudopotential on this center.
   30          6
                                   No pseudopotential on this center.
   31          6
                                   No pseudopotential on this center.
   32          6
                                   No pseudopotential on this center.
   33          6
                                   No pseudopotential on this center.
   34          6
                                   No pseudopotential on this center.
   35          6
                                   No pseudopotential on this center.
   36          6
                                   No pseudopotential on this center.
   37          6
                                   No pseudopotential on this center.
   38          6
                                   No pseudopotential on this center.
   39          6
                                   No pseudopotential on this center.
   40          6
                                   No pseudopotential on this center.
   41          6
                                   No pseudopotential on this center.
   42          6
                                   No pseudopotential on this center.
   43          6
                                   No pseudopotential on this center.
   44          6
                                   No pseudopotential on this center.
   45          6
                                   No pseudopotential on this center.
   46          6
                                   No pseudopotential on this center.
   47          6
                                   No pseudopotential on this center.
   48          6
                                   No pseudopotential on this center.
   49         28           18
                                      D and up 
                                                     1      469.9324331      -10.00000000    0.00000000
                                                     2       85.4236411      -69.40848050    0.00000000
                                                     2       21.2674984      -12.09510200    0.00000000
                                      S - D
                                                     0      162.1686097        3.00000000    0.00000000
                                                     1      176.5333232       22.02536180    0.00000000
                                                     2       68.9562010      443.01810880    0.00000000
                                                     2       13.5792838      145.56964110    0.00000000
                                      P - D
                                                     0       69.0181506        5.00000000    0.00000000
                                                     1      275.5955596        4.98828240    0.00000000
                                                     2       47.1315453      256.69458530    0.00000000
                                                     2       12.9874075       78.47544500    0.00000000
   50          6
                                   No pseudopotential on this center.
   51          6
                                   No pseudopotential on this center.
   52          1
                                   No pseudopotential on this center.
   53          9
                                   No pseudopotential on this center.
   54          9
                                   No pseudopotential on this center.
   55          9
                                   No pseudopotential on this center.
   56          9
                                   No pseudopotential on this center.
   57          9
                                   No pseudopotential on this center.
   58          9
                                   No pseudopotential on this center.
   59          9
                                   No pseudopotential on this center.
   60          9
                                   No pseudopotential on this center.
   61          9
                                   No pseudopotential on this center.
   62          9
                                   No pseudopotential on this center.
   63          9
                                   No pseudopotential on this center.
   64          9
                                   No pseudopotential on this center.
   65          9
                                   No pseudopotential on this center.
   66          9
                                   No pseudopotential on this center.
   67          9
                                   No pseudopotential on this center.
   68          1
                                   No pseudopotential on this center.
   69          8
                                   No pseudopotential on this center.
   70          6
                                   No pseudopotential on this center.
   71          6
                                   No pseudopotential on this center.
   72          1
                                   No pseudopotential on this center.
   73         16
                                   No pseudopotential on this center.
   74          1
                                   No pseudopotential on this center.
 ======================================================================================================
 There are  1275 symmetry adapted cartesian basis functions of A   symmetry.
 There are  1210 symmetry adapted basis functions of A   symmetry.
  1210 basis functions,  2162 primitive gaussians,  1275 cartesian basis functions
   234 alpha electrons      234 beta electrons
       nuclear repulsion energy     10187.1698225026 Hartrees.
 NAtoms=   74 NActive=   74 NUniq=   74 SFac= 1.00D+00 NAtFMM=   60 NAOKFM=T Big=T
 Integral buffers will be    131072 words long.
 Raffenetti 2 integral format.
 Two-electron integral symmetry is turned on.
 One-electron integrals computed using PRISM.
   1 Symmetry operations used in ECPInt.
 ECPInt:  NShTT=   62835 NPrTT=  345229 LenC2=   44035 LenP2D=  127024.
 LDataN:  DoStor=T MaxTD1= 4 Len=   56
 NBasis=  1210 RedAO= T EigKep=  1.22D-06  NBF=  1210
 NBsUse=  1194 1.00D-06 EigRej=  9.63D-07 NBFU=  1194
 ExpMin= 2.40D-02 ExpMax= 2.19D+04 ExpMxC= 3.30D+03 IAcc=3 IRadAn=         5 AccDes= 0.00D+00
 Harris functional with IExCor=  402 and IRadAn=       5 diagonalized for initial guess.
 HarFok:  IExCor=  402 AccDes= 0.00D+00 IRadAn=         5 IDoV= 1 UseB2=F ITyADJ=14
 ICtDFT=  3500011 ScaDFX=  1.000000  1.000000  1.000000  1.000000
 FoFCou: FMM=F IPFlag=           0 FMFlag=      100000 FMFlg1=        2001
         NFxFlg=           0 DoJE=T BraDBF=F KetDBF=T FulRan=T
         wScrn=  0.000000 ICntrl=       500 IOpCl=  0 I1Cent=   200000004 NGrid=           0
         NMat0=    1 NMatS0=      1 NMatT0=    0 NMatD0=    1 NMtDS0=    0 NMtDT0=    0
 Petite list used in FoFCou.
 Requested convergence on RMS density matrix=1.00D-08 within1000 cycles.
 Requested convergence on MAX density matrix=1.00D-06.
 Requested convergence on             energy=1.00D-06.
 No special actions if energy rises.
 EnCoef did     3 forward-backward iterations
 EnCoef did   100 forward-backward iterations
 EnCoef did     7 forward-backward iterations
 EnCoef did     3 forward-backward iterations
 EnCoef did     2 forward-backward iterations
 Restarting incremental Fock formation.
 SCF Done:  E(RB3LYP) =  -3965.88030443     A.U. after   26 cycles
            NFock= 26  Conv=0.13D-08     -V/T= 2.0221

 **********************************************************************

            Population analysis using the SCF Density.

 **********************************************************************

 Orbital symmetries:
       Occupied  (A) (A) (A) (A) (A) (A) (A) (A) (A) (A) (A) (A)
                 (A) (A) (A) (A) (A) (A) (A) (A) (A) (A) (A) (A)
                 (A) (A) (A) (A) (A) (A) (A) (A) (A) (A) (A) (A)
                 (A) (A) (A) (A) (A) (A) (A) (A) (A) (A) (A) (A)
                 (A) (A) (A) (A) (A) (A) (A) (A) (A) (A) (A) (A)
                 (A) (A) (A) (A) (A) (A) (A) (A) (A) (A) (A) (A)
                 (A) (A) (A) (A) (A) (A) (A) (A) (A) (A) (A) (A)
                 (A) (A) (A) (A) (A) (A) (A) (A) (A) (A) (A) (A)
                 (A) (A) (A) (A) (A) (A) (A) (A) (A) (A) (A) (A)
                 (A) (A) (A) (A) (A) (A) (A) (A) (A) (A) (A) (A)
                 (A) (A) (A) (A) (A) (A) (A) (A) (A) (A) (A) (A)
                 (A) (A) (A) (A) (A) (A) (A) (A) (A) (A) (A) (A)
                 (A) (A) (A) (A) (A) (A) (A) (A) (A) (A) (A) (A)
                 (A) (A) (A) (A) (A) (A) (A) (A) (A) (A) (A) (A)
                 (A) (A) (A) (A) (A) (A) (A) (A) (A) (A) (A) (A)
                 (A) (A) (A) (A) (A) (A) (A) (A) (A) (A) (A) (A)
                 (A) (A) (A) (A) (A) (A) (A) (A) (A) (A) (A) (A)
                 (A) (A) (A) (A) (A) (A) (A) (A) (A) (A) (A) (A)
                 (A) (A) (A) (A) (A) (A) (A) (A) (A) (A) (A) (A)
                 (A) (A) (A) (A) (A) (A)
       Virtual   (A) (A) (A) (A) (A) (A) (A) (A) (A) (A) (A) (A)
                 (A) (A) (A) (A) (A) (A) (A) (A) (A) (A) (A) (A)
                 (A) (A) (A) (A) (A) (A) (A) (A) (A) (A) (A) (A)
                 (A) (A) (A) (A) (A) (A) (A) (A) (A) (A) (A) (A)
                 (A) (A) (A) (A) (A) (A) (A) (A) (A) (A) (A) (A)
                 (A) (A) (A) (A) (A) (A) (A) (A) (A) (A) (A) (A)
                 (A) (A) (A) (A) (A) (A) (A) (A) (A) (A) (A) (A)
                 (A) (A) (A) (A) (A) (A) (A) (A) (A) (A) (A) (A)
                 (A) (A) (A) (A) (A) (A) (A) (A) (A) (A) (A) (A)
                 (A) (A) (A) (A) (A) (A) (A) (A) (A) (A) (A) (A)
                 (A) (A) (A) (A) (A) (A) (A) (A) (A) (A) (A) (A)
                 (A) (A) (A) (A) (A) (A) (A) (A) (A) (A) (A) (A)
                 (A) (A) (A) (A) (A) (A) (A) (A) (A) (A) (A) (A)
                 (A) (A) (A) (A) (A) (A) (A) (A) (A) (A) (A) (A)
                 (A) (A) (A) (A) (A) (A) (A) (A) (A) (A) (A) (A)
                 (A) (A) (A) (A) (A) (A) (A) (A) (A) (A) (A) (A)
                 (A) (A) (A) (A) (A) (A) (A) (A) (A) (A) (A) (A)
                 (A) (A) (A) (A) (A) (A) (A) (A) (A) (A) (A) (A)
                 (A) (A) (A) (A) (A) (A) (A) (A) (A) (A) (A) (A)
                 (A) (A) (A) (A) (A) (A) (A) (A) (A) (A) (A) (A)
                 (A) (A) (A) (A) (A) (A) (A) (A) (A) (A) (A) (A)
                 (A) (A) (A) (A) (A) (A) (A) (A) (A) (A) (A) (A)
                 (A) (A) (A) (A) (A) (A) (A) (A) (A) (A) (A) (A)
                 (A) (A) (A) (A) (A) (A) (A) (A) (A) (A) (A) (A)
                 (A) (A) (A) (A) (A) (A) (A) (A) (A) (A) (A) (A)
                 (A) (A) (A) (A) (A) (A) (A) (A) (A) (A) (A) (A)
                 (A) (A) (A) (A) (A) (A) (A) (A) (A) (A) (A) (A)
                 (A) (A) (A) (A) (A) (A) (A) (A) (A) (A) (A) (A)
                 (A) (A) (A) (A) (A) (A) (A) (A) (A) (A) (A) (A)
                 (A) (A) (A) (A) (A) (A) (A) (A) (A) (A) (A) (A)
                 (A) (A) (A) (A) (A) (A) (A) (A) (A) (A) (A) (A)
                 (A) (A) (A) (A) (A) (A) (A) (A) (A) (A) (A) (A)
                 (A) (A) (A) (A) (A) (A) (A) (A) (A) (A) (A) (A)
                 (A) (A) (A) (A) (A) (A) (A) (A) (A) (A) (A) (A)
                 (A) (A) (A) (A) (A) (A) (A) (A) (A) (A) (A) (A)
                 (A) (A) (A) (A) (A) (A) (A) (A) (A) (A) (A) (A)
                 (A) (A) (A) (A) (A) (A) (A) (A) (A) (A) (A) (A)
                 (A) (A) (A) (A) (A) (A) (A) (A) (A) (A) (A) (A)
                 (A) (A) (A) (A) (A) (A) (A) (A) (A) (A) (A) (A)
                 (A) (A) (A) (A) (A) (A) (A) (A) (A) (A) (A) (A)
                 (A) (A) (A) (A) (A) (A) (A) (A) (A) (A) (A) (A)
                 (A) (A) (A) (A) (A) (A) (A) (A) (A) (A) (A) (A)
                 (A) (A) (A) (A) (A) (A) (A) (A) (A) (A) (A) (A)
                 (A) (A) (A) (A) (A) (A) (A) (A) (A) (A) (A) (A)
                 (A) (A) (A) (A) (A) (A) (A) (A) (A) (A) (A) (A)
                 (A) (A) (A) (A) (A) (A) (A) (A) (A) (A) (A) (A)
                 (A) (A) (A) (A) (A) (A) (A) (A) (A) (A) (A) (A)
                 (A) (A) (A) (A) (A) (A) (A) (A) (A) (A) (A) (A)
                 (A) (A) (A) (A) (A) (A) (A) (A) (A) (A) (A) (A)
                 (A) (A) (A) (A) (A) (A) (A) (A) (A) (A) (A) (A)
                 (A) (A) (A) (A) (A) (A) (A) (A) (A) (A) (A) (A)
                 (A) (A) (A) (A) (A) (A) (A) (A) (A) (A) (A) (A)
                 (A) (A) (A) (A) (A) (A) (A) (A) (A) (A) (A) (A)
                 (A) (A) (A) (A) (A) (A) (A) (A) (A) (A) (A) (A)
                 (A) (A) (A) (A) (A) (A) (A) (A) (A) (A) (A) (A)
                 (A) (A) (A) (A) (A) (A) (A) (A) (A) (A) (A) (A)
                 (A) (A) (A) (A) (A) (A) (A) (A) (A) (A) (A) (A)
                 (A) (A) (A) (A) (A) (A) (A) (A) (A) (A) (A) (A)
                 (A) (A) (A) (A) (A) (A) (A) (A) (A) (A) (A) (A)
                 (A) (A) (A) (A) (A) (A) (A) (A) (A) (A) (A) (A)
                 (A) (A) (A) (A) (A) (A) (A) (A) (A) (A) (A) (A)
                 (A) (A) (A) (A) (A) (A) (A) (A) (A) (A) (A) (A)
                 (A) (A) (A) (A) (A) (A) (A) (A) (A) (A) (A) (A)
                 (A) (A) (A) (A) (A) (A) (A) (A) (A) (A) (A) (A)
                 (A) (A) (A) (A) (A) (A) (A) (A) (A) (A) (A) (A)
                 (A) (A) (A) (A) (A) (A) (A) (A) (A) (A) (A) (A)
                 (A) (A) (A) (A) (A) (A) (A) (A) (A) (A) (A) (A)
                 (A) (A) (A) (A) (A) (A) (A) (A) (A) (A) (A) (A)
                 (A) (A) (A) (A) (A) (A) (A) (A) (A) (A) (A) (A)
                 (A) (A) (A) (A) (A) (A) (A) (A) (A) (A) (A) (A)
                 (A) (A) (A) (A) (A) (A) (A) (A) (A) (A) (A) (A)
                 (A) (A) (A) (A) (A) (A) (A) (A) (A) (A) (A) (A)
                 (A) (A) (A) (A) (A) (A) (A) (A) (A) (A) (A) (A)
                 (A) (A) (A) (A) (A) (A) (A) (A) (A) (A) (A) (A)
                 (A) (A) (A) (A) (A) (A) (A) (A) (A) (A) (A) (A)
                 (A) (A) (A) (A) (A) (A) (A) (A) (A) (A) (A) (A)
                 (A) (A) (A) (A) (A) (A) (A) (A) (A) (A) (A) (A)
                 (A) (A) (A) (A) (A) (A) (A) (A) (A) (A) (A) (A)
                 (A) (A) (A) (A) (A) (A) (A) (A) (A) (A) (A) (A)
                 (A) (A) (A) (A) (A) (A) (A) (A) (A) (A) (A) (A)
 The electronic state is 1-A.
 Alpha  occ. eigenvalues --  -88.80681 -24.70119 -24.69993 -24.69882 -24.69506
 Alpha  occ. eigenvalues --  -24.69489 -24.69415 -24.69315 -24.69259 -24.69258
 Alpha  occ. eigenvalues --  -24.68548 -24.68483 -24.68440 -24.68353 -24.68258
 Alpha  occ. eigenvalues --  -24.68253 -19.03820 -14.27640 -14.27509 -14.26549
 Alpha  occ. eigenvalues --  -14.26297 -10.26618 -10.26430 -10.26386 -10.26054
 Alpha  occ. eigenvalues --  -10.25957 -10.25872 -10.25834 -10.25806 -10.25764
 Alpha  occ. eigenvalues --  -10.25728 -10.25527 -10.25488 -10.25430 -10.25283
 Alpha  occ. eigenvalues --  -10.25222 -10.18423 -10.18283 -10.18282 -10.18145
 Alpha  occ. eigenvalues --  -10.16065 -10.15890 -10.15245 -10.15174 -10.13734
 Alpha  occ. eigenvalues --  -10.13578 -10.13359 -10.13106 -10.12983 -10.12781
 Alpha  occ. eigenvalues --  -10.12716 -10.12619 -10.12527 -10.12525 -10.12207
 Alpha  occ. eigenvalues --  -10.12086 -10.12039 -10.11336 -10.10604 -10.09460
 Alpha  occ. eigenvalues --  -10.09098 -10.09050 -10.08355  -7.87934  -5.84319
 Alpha  occ. eigenvalues --   -5.83936  -5.83534  -3.95029  -2.56816  -2.56716
 Alpha  occ. eigenvalues --   -2.51151  -1.21875  -1.21712  -1.21646  -1.20872
 Alpha  occ. eigenvalues --   -1.20732  -1.20637  -1.20295  -1.20130  -1.20077
 Alpha  occ. eigenvalues --   -1.19376  -1.19285  -1.19137  -1.19092  -1.18934
 Alpha  occ. eigenvalues --   -1.18908  -0.92663  -0.88481  -0.87476  -0.87123
 Alpha  occ. eigenvalues --   -0.85667  -0.85545  -0.85307  -0.85093  -0.78147
 Alpha  occ. eigenvalues --   -0.77758  -0.76906  -0.75523  -0.73545  -0.73350
 Alpha  occ. eigenvalues --   -0.73202  -0.72159  -0.71264  -0.70672  -0.70046
 Alpha  occ. eigenvalues --   -0.69751  -0.68990  -0.67919  -0.65435  -0.64149
 Alpha  occ. eigenvalues --   -0.63157  -0.62429  -0.62164  -0.61979  -0.61627
 Alpha  occ. eigenvalues --   -0.61428  -0.61410  -0.60708  -0.57365  -0.57194
 Alpha  occ. eigenvalues --   -0.54926  -0.54737  -0.54651  -0.54131  -0.53932
 Alpha  occ. eigenvalues --   -0.53827  -0.53254  -0.52977  -0.52758  -0.52157
 Alpha  occ. eigenvalues --   -0.50984  -0.50109  -0.49927  -0.49897  -0.49860
 Alpha  occ. eigenvalues --   -0.49660  -0.49457  -0.49156  -0.48961  -0.48106
 Alpha  occ. eigenvalues --   -0.47750  -0.47461  -0.47446  -0.47420  -0.47161
 Alpha  occ. eigenvalues --   -0.46975  -0.46850  -0.46785  -0.46671  -0.45737
 Alpha  occ. eigenvalues --   -0.45017  -0.44694  -0.44526  -0.44462  -0.43899
 Alpha  occ. eigenvalues --   -0.43676  -0.43634  -0.43159  -0.43003  -0.42657
 Alpha  occ. eigenvalues --   -0.42270  -0.41858  -0.41793  -0.41697  -0.41632
 Alpha  occ. eigenvalues --   -0.41547  -0.41508  -0.39887  -0.39753  -0.39632
 Alpha  occ. eigenvalues --   -0.39541  -0.39509  -0.39430  -0.39128  -0.38687
 Alpha  occ. eigenvalues --   -0.38063  -0.37826  -0.37003  -0.36931  -0.36827
 Alpha  occ. eigenvalues --   -0.36776  -0.35860  -0.35677  -0.35157  -0.34812
 Alpha  occ. eigenvalues --   -0.34538  -0.34307  -0.34133  -0.33969  -0.33867
 Alpha  occ. eigenvalues --   -0.33756  -0.33605  -0.33134  -0.32435  -0.31905
 Alpha  occ. eigenvalues --   -0.31715  -0.31476  -0.31000  -0.30873  -0.30815
 Alpha  occ. eigenvalues --   -0.30511  -0.30339  -0.29611  -0.29384  -0.28384
 Alpha  occ. eigenvalues --   -0.28188  -0.27724  -0.27678  -0.27220  -0.25108
 Alpha  occ. eigenvalues --   -0.24760  -0.24120  -0.23977  -0.22740  -0.22564
 Alpha  occ. eigenvalues --   -0.21951  -0.21671  -0.21411  -0.21379  -0.21248
 Alpha  occ. eigenvalues --   -0.21170  -0.21123  -0.20607  -0.19027  -0.17750
 Alpha  occ. eigenvalues --   -0.17337  -0.16309  -0.15983  -0.15635  -0.15224
 Alpha  occ. eigenvalues --   -0.14024  -0.12858  -0.10789  -0.09888
 Alpha virt. eigenvalues --   -0.00502   0.01009   0.01628   0.01734   0.01814
 Alpha virt. eigenvalues --    0.01918   0.01991   0.02231   0.02747   0.02873
 Alpha virt. eigenvalues --    0.03016   0.04528   0.05186   0.07090   0.07096
 Alpha virt. eigenvalues --    0.07274   0.07349   0.07575   0.07712   0.07909
 Alpha virt. eigenvalues --    0.08653   0.09008   0.09257   0.09390   0.09448
 Alpha virt. eigenvalues --    0.09550   0.09618   0.09744   0.10560   0.10760
 Alpha virt. eigenvalues --    0.10932   0.11100   0.11207   0.11406   0.11494
 Alpha virt. eigenvalues --    0.11582   0.11816   0.11980   0.12130   0.12197
 Alpha virt. eigenvalues --    0.12352   0.12618   0.12702   0.12859   0.13146
 Alpha virt. eigenvalues --    0.13235   0.13357   0.13558   0.13852   0.14183
 Alpha virt. eigenvalues --    0.14316   0.14680   0.14881   0.15008   0.15166
 Alpha virt. eigenvalues --    0.15244   0.15586   0.15689   0.15827   0.16076
 Alpha virt. eigenvalues --    0.16264   0.16305   0.16541   0.16600   0.16891
 Alpha virt. eigenvalues --    0.17038   0.17134   0.17326   0.17520   0.17607
 Alpha virt. eigenvalues --    0.17755   0.17880   0.17966   0.18056   0.18265
 Alpha virt. eigenvalues --    0.18344   0.18458   0.18493   0.18706   0.18771
 Alpha virt. eigenvalues --    0.18920   0.19081   0.19305   0.19477   0.19517
 Alpha virt. eigenvalues --    0.19728   0.19980   0.20056   0.20350   0.20619
 Alpha virt. eigenvalues --    0.20674   0.20860   0.20947   0.21090   0.21302
 Alpha virt. eigenvalues --    0.21548   0.21601   0.21748   0.21809   0.21984
 Alpha virt. eigenvalues --    0.22035   0.22146   0.22334   0.22508   0.22652
 Alpha virt. eigenvalues --    0.22844   0.23005   0.23069   0.23092   0.23301
 Alpha virt. eigenvalues --    0.23468   0.23529   0.23718   0.23865   0.23962
 Alpha virt. eigenvalues --    0.24287   0.24503   0.24597   0.24840   0.24929
 Alpha virt. eigenvalues --    0.25100   0.25258   0.25503   0.25544   0.25773
 Alpha virt. eigenvalues --    0.25933   0.26052   0.26116   0.26340   0.26544
 Alpha virt. eigenvalues --    0.26760   0.26797   0.26866   0.27112   0.27192
 Alpha virt. eigenvalues --    0.27435   0.27650   0.27797   0.27900   0.28039
 Alpha virt. eigenvalues --    0.28240   0.28504   0.28620   0.28863   0.28984
 Alpha virt. eigenvalues --    0.29198   0.29251   0.29554   0.29652   0.29716
 Alpha virt. eigenvalues --    0.30155   0.30168   0.30312   0.30555   0.30734
 Alpha virt. eigenvalues --    0.30906   0.31082   0.31156   0.31283   0.31467
 Alpha virt. eigenvalues --    0.31866   0.31932   0.31992   0.32119   0.32408
 Alpha virt. eigenvalues --    0.32529   0.32638   0.32737   0.32989   0.33274
 Alpha virt. eigenvalues --    0.33579   0.33832   0.33950   0.34037   0.34237
 Alpha virt. eigenvalues --    0.34248   0.34361   0.34671   0.34811   0.35196
 Alpha virt. eigenvalues --    0.35221   0.35289   0.35646   0.35754   0.35792
 Alpha virt. eigenvalues --    0.35971   0.35994   0.36245   0.36458   0.36506
 Alpha virt. eigenvalues --    0.36692   0.36745   0.36877   0.37024   0.37115
 Alpha virt. eigenvalues --    0.37214   0.37305   0.37638   0.37681   0.37979
 Alpha virt. eigenvalues --    0.37993   0.38214   0.38284   0.38486   0.38688
 Alpha virt. eigenvalues --    0.38827   0.38950   0.39033   0.39257   0.39372
 Alpha virt. eigenvalues --    0.39523   0.39754   0.39972   0.40037   0.40369
 Alpha virt. eigenvalues --    0.40478   0.40581   0.40741   0.40904   0.41082
 Alpha virt. eigenvalues --    0.41210   0.41330   0.41562   0.41753   0.41805
 Alpha virt. eigenvalues --    0.41891   0.42099   0.42183   0.42239   0.42345
 Alpha virt. eigenvalues --    0.42388   0.42711   0.42871   0.43003   0.43234
 Alpha virt. eigenvalues --    0.43349   0.43406   0.43617   0.43686   0.43837
 Alpha virt. eigenvalues --    0.44004   0.44044   0.44180   0.44272   0.44472
 Alpha virt. eigenvalues --    0.44615   0.44707   0.44933   0.44945   0.45203
 Alpha virt. eigenvalues --    0.45290   0.45407   0.45498   0.45638   0.45854
 Alpha virt. eigenvalues --    0.46037   0.46190   0.46418   0.46519   0.46628
 Alpha virt. eigenvalues --    0.46962   0.47015   0.47314   0.47363   0.47597
 Alpha virt. eigenvalues --    0.47661   0.47985   0.48110   0.48373   0.48470
 Alpha virt. eigenvalues --    0.48551   0.48748   0.49168   0.49426   0.49721
 Alpha virt. eigenvalues --    0.49871   0.50172   0.50411   0.50497   0.50692
 Alpha virt. eigenvalues --    0.50962   0.51271   0.51516   0.51968   0.52060
 Alpha virt. eigenvalues --    0.52228   0.52415   0.52762   0.52866   0.53176
 Alpha virt. eigenvalues --    0.53315   0.53735   0.53819   0.53900   0.54175
 Alpha virt. eigenvalues --    0.54666   0.54793   0.55164   0.55385   0.55598
 Alpha virt. eigenvalues --    0.55912   0.56246   0.56467   0.56809   0.57089
 Alpha virt. eigenvalues --    0.57255   0.57781   0.57851   0.58047   0.58162
 Alpha virt. eigenvalues --    0.58410   0.58722   0.58849   0.59139   0.59434
 Alpha virt. eigenvalues --    0.59692   0.60009   0.61101   0.61386   0.61487
 Alpha virt. eigenvalues --    0.61952   0.61985   0.62252   0.62618   0.62642
 Alpha virt. eigenvalues --    0.63133   0.63628   0.63931   0.64414   0.64518
 Alpha virt. eigenvalues --    0.65062   0.65325   0.66008   0.66297   0.66744
 Alpha virt. eigenvalues --    0.66837   0.67224   0.67672   0.68058   0.68655
 Alpha virt. eigenvalues --    0.69059   0.69363   0.70011   0.70156   0.70868
 Alpha virt. eigenvalues --    0.71223   0.71601   0.71820   0.72542   0.73111
[...]
 Alpha virt. eigenvalues --    0.46293   0.46345   0.46393   0.46519   0.46537
 Alpha virt. eigenvalues --    0.46918   0.47134   0.47339   0.47524   0.47780
 Alpha virt. eigenvalues --    0.47829   0.47984   0.48309   0.48325   0.48498
 Alpha virt. eigenvalues --    0.48636   0.48905   0.48989   0.49467   0.49596
 Alpha virt. eigenvalues --    0.49799   0.49877   0.50411   0.50548   0.50821
 Alpha virt. eigenvalues --    0.50885   0.51113   0.51198   0.51640   0.51709
 Alpha virt. eigenvalues --    0.51884   0.52113   0.52823   0.52896   0.53232
 Alpha virt. eigenvalues --    0.53539   0.53886   0.53901   0.54162   0.54344
 Alpha virt. eigenvalues --    0.54529   0.54723   0.54917   0.55381   0.55516
 Alpha virt. eigenvalues --    0.55669   0.56316   0.56474   0.57151   0.57264
 Alpha virt. eigenvalues --    0.57825   0.57957   0.58163   0.58360   0.58392
 Alpha virt. eigenvalues --    0.58866   0.59013   0.59176   0.59300   0.59868
 Alpha virt. eigenvalues --    0.60136   0.60412   0.60807   0.61296   0.61570
 Alpha virt. eigenvalues --    0.61958   0.61970   0.62509   0.62832   0.63039
 Alpha virt. eigenvalues --    0.63152   0.63561   0.64284   0.64586   0.64949
 Alpha virt. eigenvalues --    0.65361   0.65765   0.66306   0.66584   0.67211
 Alpha virt. eigenvalues --    0.67489   0.67615   0.68091   0.68316   0.68777
 Alpha virt. eigenvalues --    0.69153   0.69753   0.70353   0.70885   0.71181
 Alpha virt. eigenvalues --    0.71869   0.72415   0.73006   0.73448   0.73593
 Alpha virt. eigenvalues --    0.75145   0.75387   0.75782   0.76473   0.76725
 Alpha virt. eigenvalues --    0.77015   0.77431   0.77556   0.77801   0.78218
 Alpha virt. eigenvalues --    0.78404   0.78799   0.79087   0.79536   0.79819
 Alpha virt. eigenvalues --    0.80349   0.80450   0.80990   0.81207   0.81343
 Alpha virt. eigenvalues --    0.82738   0.82929   0.83559   0.83769   0.84128
 Alpha virt. eigenvalues --    0.84806   0.85029   0.85333   0.85610   0.86390
 Alpha virt. eigenvalues --    0.86839   0.86986   0.87650   0.87758   0.87932
 Alpha virt. eigenvalues --    0.88288   0.88478   0.89018   0.89055   0.89530
 Alpha virt. eigenvalues --    0.89874   0.89920   0.90103   0.90517   0.90779
 Alpha virt. eigenvalues --    0.91099   0.91471   0.91767   0.91932   0.92271
 Alpha virt. eigenvalues --    0.92711   0.92756   0.93363   0.93813   0.94504
 Alpha virt. eigenvalues --    0.95069   0.95584   0.95843   0.96049   0.96450
 Alpha virt. eigenvalues --    0.96792   0.97229   0.97324   0.98005   0.98280
 Alpha virt. eigenvalues --    0.98507   0.99055   0.99204   0.99413   0.99703
 Alpha virt. eigenvalues --    1.00061   1.00295   1.00620   1.00889   1.01016
 Alpha virt. eigenvalues --    1.01413   1.01523   1.02006   1.02067   1.02205
 Alpha virt. eigenvalues --    1.02485   1.02771   1.03147   1.03238   1.03647
 Alpha virt. eigenvalues --    1.04729   1.04948   1.05263   1.05498   1.06087
 Alpha virt. eigenvalues --    1.06851   1.07239   1.07643   1.07689   1.08468
 Alpha virt. eigenvalues --    1.09283   1.09408   1.10586   1.11022   1.11332
 Alpha virt. eigenvalues --    1.12295   1.12724   1.13585   1.14664   1.15023
 Alpha virt. eigenvalues --    1.15763   1.16391   1.16918   1.17214   1.17344
 Alpha virt. eigenvalues --    1.17916   1.18249   1.19303   1.19538   1.19773
 Alpha virt. eigenvalues --    1.20038   1.21062   1.21326   1.21632   1.21692
 Alpha virt. eigenvalues --    1.22012   1.22208   1.22348   1.22806   1.23132
 Alpha virt. eigenvalues --    1.23149   1.23433   1.23899   1.24163   1.24216
 Alpha virt. eigenvalues --    1.24473   1.25232   1.25556   1.25748   1.25986
 Alpha virt. eigenvalues --    1.26496   1.27386   1.27830   1.28164   1.28464
 Alpha virt. eigenvalues --    1.28666   1.29314   1.29403   1.29611   1.30056
 Alpha virt. eigenvalues --    1.30395   1.30808   1.30951   1.31408   1.31678
 Alpha virt. eigenvalues --    1.31975   1.32533   1.33342   1.34011   1.34308
 Alpha virt. eigenvalues --    1.34310   1.34583   1.34899   1.35120   1.35523
 Alpha virt. eigenvalues --    1.35799   1.36064   1.36359   1.36554   1.36650
 Alpha virt. eigenvalues --    1.37159   1.37406   1.37655   1.37940   1.38227
 Alpha virt. eigenvalues --    1.38806   1.38861   1.39008   1.39211   1.39785
 Alpha virt. eigenvalues --    1.40188   1.40312   1.40669   1.41229   1.42210
 Alpha virt. eigenvalues --    1.42346   1.42854   1.43474   1.43911   1.43953
 Alpha virt. eigenvalues --    1.44365   1.44740   1.45144   1.45210   1.45804
 Alpha virt. eigenvalues --    1.46303   1.46675   1.47145   1.47647   1.48100
 Alpha virt. eigenvalues --    1.49036   1.49303   1.49547   1.50137   1.50152
 Alpha virt. eigenvalues --    1.50763   1.51334   1.51840   1.51988   1.52909
 Alpha virt. eigenvalues --    1.53196   1.53603   1.54275   1.54456   1.55158
 Alpha virt. eigenvalues --    1.55619   1.55857   1.57222   1.57664   1.58224
 Alpha virt. eigenvalues --    1.58838   1.60423   1.60824   1.61516   1.61969
 Alpha virt. eigenvalues --    1.63197   1.64081   1.65023   1.65538   1.65596
 Alpha virt. eigenvalues --    1.65882   1.66109   1.66310   1.66521   1.66895
 Alpha virt. eigenvalues --    1.67082   1.67296   1.67458   1.67682   1.67710
 Alpha virt. eigenvalues --    1.68095   1.68248   1.68548   1.68786   1.69055
 Alpha virt. eigenvalues --    1.69216   1.69581   1.70169   1.70219   1.70688
 Alpha virt. eigenvalues --    1.71354   1.71744   1.71944   1.72634   1.73042
 Alpha virt. eigenvalues --    1.73178   1.73463   1.73613   1.73887   1.73901
 Alpha virt. eigenvalues --    1.74010   1.74449   1.74790   1.75058   1.75849
 Alpha virt. eigenvalues --    1.76011   1.76405   1.76572   1.76832   1.76990
 Alpha virt. eigenvalues --    1.77122   1.77446   1.77802   1.77850   1.78143
 Alpha virt. eigenvalues --    1.78405   1.78615   1.78656   1.78965   1.79264
 Alpha virt. eigenvalues --    1.79363   1.79754   1.80041   1.80659   1.81099
 Alpha virt. eigenvalues --    1.81329   1.81942   1.82042   1.82245   1.82755
 Alpha virt. eigenvalues --    1.83039   1.83116   1.83372   1.83589   1.83834
 Alpha virt. eigenvalues --    1.83965   1.84132   1.84304   1.84499   1.84658
 Alpha virt. eigenvalues --    1.84720   1.85011   1.85052   1.85244   1.85648
 Alpha virt. eigenvalues --    1.85843   1.86046   1.86279   1.86507   1.86617
 Alpha virt. eigenvalues --    1.86847   1.86930   1.87264   1.87744   1.87907
 Alpha virt. eigenvalues --    1.88139   1.88453   1.88730   1.89248   1.89319
 Alpha virt. eigenvalues --    1.89353   1.89470   1.89573   1.90188   1.90654
 Alpha virt. eigenvalues --    1.90746   1.91281   1.91633   1.91692   1.92115
 Alpha virt. eigenvalues --    1.92375   1.92567   1.93038   1.93360   1.93584
 Alpha virt. eigenvalues --    1.93840   1.93994   1.94301   1.94408   1.94474
 Alpha virt. eigenvalues --    1.94833   1.95061   1.95134   1.95512   1.95746
 Alpha virt. eigenvalues --    1.96089   1.97057   1.97324   1.97784   1.97942
 Alpha virt. eigenvalues --    1.98225   1.98296   1.98799   1.99381   1.99697
 Alpha virt. eigenvalues --    1.99906   2.00054   2.00180   2.00659   2.01512
 Alpha virt. eigenvalues --    2.01868   2.02498   2.02682   2.03085   2.03539
 Alpha virt. eigenvalues --    2.04403   2.04584   2.05510   2.06011   2.06258
 Alpha virt. eigenvalues --    2.06845   2.07277   2.07546   2.07971   2.08004
 Alpha virt. eigenvalues --    2.08451   2.08871   2.09373   2.09543   2.09922
 Alpha virt. eigenvalues --    2.10824   2.10983   2.11764   2.12851   2.13965
 Alpha virt. eigenvalues --    2.14358   2.14911   2.15477   2.15550   2.15845
 Alpha virt. eigenvalues --    2.16331   2.17178   2.17450   2.18297   2.18974
 Alpha virt. eigenvalues --    2.19280   2.20009   2.20231   2.20717   2.21156
 Alpha virt. eigenvalues --    2.21202   2.21738   2.22084   2.23366   2.23442
 Alpha virt. eigenvalues --    2.23943   2.24181   2.25106   2.26431   2.26957
 Alpha virt. eigenvalues --    2.27192   2.27266   2.27367   2.27821   2.28089
 Alpha virt. eigenvalues --    2.28259   2.28321   2.28808   2.28992   2.29423
 Alpha virt. eigenvalues --    2.29506   2.29734   2.29840   2.29978   2.30265
 Alpha virt. eigenvalues --    2.30449   2.30506   2.30717   2.32325   2.32704
 Alpha virt. eigenvalues --    2.33200   2.33299   2.33606   2.34405   2.34864
 Alpha virt. eigenvalues --    2.35170   2.35930   2.36250   2.36824   2.37061
 Alpha virt. eigenvalues --    2.37821   2.38488   2.38598   2.38879   2.38928
 Alpha virt. eigenvalues --    2.38993   2.39658   2.39950   2.40721   2.40950
 Alpha virt. eigenvalues --    2.41078   2.41204   2.41599   2.42118   2.42474
 Alpha virt. eigenvalues --    2.42905   2.43476   2.44031   2.44747   2.45133
 Alpha virt. eigenvalues --    2.45806   2.45912   2.46261   2.46561   2.46831
 Alpha virt. eigenvalues --    2.47349   2.47565   2.48404   2.48837   2.49439
 Alpha virt. eigenvalues --    2.49868   2.50162   2.50764   2.51213   2.51657
 Alpha virt. eigenvalues --    2.53786   2.54490   2.54608   2.54989   2.55581
 Alpha virt. eigenvalues --    2.56130   2.56373   2.57531   2.58195   2.58999
 Alpha virt. eigenvalues --    2.59189   2.59806   2.59897   2.59963   2.60266
 Alpha virt. eigenvalues --    2.60381   2.60513   2.60824   2.61481   2.62086
 Alpha virt. eigenvalues --    2.62215   2.62359   2.62897   2.63305   2.63925
 Alpha virt. eigenvalues --    2.64166   2.64417   2.64647   2.65407   2.65663
 Alpha virt. eigenvalues --    2.65676   2.66800   2.67068   2.67149   2.67698
 Alpha virt. eigenvalues --    2.68730   2.69014   2.69296   2.70798   2.70984
 Alpha virt. eigenvalues --    2.71597   2.72228   2.72396   2.73373   2.73686
 Alpha virt. eigenvalues --    2.74407   2.75360   2.77483   2.77647   2.78039
 Alpha virt. eigenvalues --    2.78274   2.78700   2.78995   2.79698   2.80778
 Alpha virt. eigenvalues --    2.81973   2.82822   2.82984   2.83414   2.83752
 Alpha virt. eigenvalues --    2.84453   2.85188   2.85735   2.86565   2.89865
 Alpha virt. eigenvalues --    2.90590   2.91611   2.93632   2.94798   2.95494
 Alpha virt. eigenvalues --    2.96042   2.96644   2.97971   2.98437   2.99981
 Alpha virt. eigenvalues --    3.00641   3.01471   3.02785   3.04479   3.05640
 Alpha virt. eigenvalues --    3.05978   3.06348   3.06811   3.09600   3.10235
 Alpha virt. eigenvalues --    3.11897   3.12129   3.12286   3.12615   3.12719
 Alpha virt. eigenvalues --    3.13309   3.13956   3.16390   3.17856   3.19731
 Alpha virt. eigenvalues --    3.20566   3.21732   3.22085   3.22242   3.22685
 Alpha virt. eigenvalues --    3.23032   3.23360   3.24914   3.26289   3.26841
 Alpha virt. eigenvalues --    3.28512   3.28887   3.29359   3.29709   3.29834
 Alpha virt. eigenvalues --    3.30241   3.31789   3.34450   3.35936   3.36988
 Alpha virt. eigenvalues --    3.40266   3.40530   3.40754   3.40869   3.42196
 Alpha virt. eigenvalues --    3.42375   3.42693   3.44811   3.47079   3.47215
 Alpha virt. eigenvalues --    3.47470   3.49171   3.50671   3.51429   3.51956
 Alpha virt. eigenvalues --    3.54628   3.72253   3.72629   3.73526   3.74063
 Alpha virt. eigenvalues --    3.86721   3.87111   3.88441   3.89488  46.65129
          Condensed to atoms (all electrons):
 Mulliken charges:
               1
     1  C    0.166734
     2  C    0.256213
     3  C   -0.092770
     4  C    0.184184
     5  C   -0.101676
     6  C   -0.247159
     7  C    0.013109
     8  C    0.212636
     9  C   -0.162854
    10  C   -0.100431
    11  C   -0.393211
    12  C    0.241912
    13  H    0.118601
    14  H    0.114790
    15  H    0.115533
    16  N    0.415791
    17  N    0.537855
    18  N    0.338040
    19  N    0.294625
    20  C   -0.191799
    21  H    0.113490
    22  C    0.047724
    23  H    0.107305
    24  C    0.541717
    25  C   -0.080293
    26  H    0.117011
    27  C   -0.002634
    28  C    0.165674
    29  C    0.138968
    30  C    0.027711
    31  C   -0.680655
    32  C    0.083337
    33  C    0.221496
    34  C    0.242410
    35  C    0.306606
    36  C    0.499764
    37  C   -0.652603
    38  C    0.186739
    39  C    0.042308
    40  C    0.310349
    41  C    0.280075
    42  C    0.499536
    43  C   -0.765605
    44  C    0.118468
    45  C    0.173957
    46  C    0.275949
    47  C    0.361659
    48  C    0.473996
    49  Ni  -0.498289
    50  C   -0.325347
    51  C   -0.249543
    52  H    0.172750
    53  F   -0.279379
    54  F   -0.354050
    55  F   -0.351060
    56  F   -0.352010
    57  F   -0.278159
    58  F   -0.278889
    59  F   -0.355599
    60  F   -0.352148
    61  F   -0.353810
    62  F   -0.279130
    63  F   -0.270064
    64  F   -0.352325
    65  F   -0.351474
    66  F   -0.353396
    67  F   -0.276155
    68  H    0.119941
    69  O   -0.554171
    70  C    0.147687
    71  C   -0.129283
    72  H    0.140846
    73  S    0.000306
    74  H    0.138171
 Sum of Mulliken charges =  -1.00000
 Mulliken charges with hydrogens summed into heavy atoms:
               1
     1  C    0.166734
     2  C    0.256213
     3  C    0.022762
     4  C    0.184184
     5  C   -0.101676
     6  C   -0.108988
     7  C    0.013109
     8  C    0.212636
     9  C   -0.048063
    10  C   -0.100431
    11  C   -0.274610
    12  C    0.241912
    16  N    0.415791
    17  N    0.537855
    18  N    0.338040
    19  N    0.294625
    20  C   -0.078310
    22  C    0.155029
    24  C    0.541717
    25  C    0.036718
    27  C   -0.002634
    28  C    0.165674
    29  C    0.138968
    30  C    0.027711
    31  C   -0.680655
    32  C    0.083337
    33  C    0.221496
    34  C    0.242410
    35  C    0.306606
    36  C    0.499764
    37  C   -0.652603
    38  C    0.186739
    39  C    0.042308
    40  C    0.310349
    41  C    0.280075
    42  C    0.499536
    43  C   -0.765605
    44  C    0.118468
    45  C    0.173957
    46  C    0.275949
    47  C    0.361659
    48  C    0.473996
    49  Ni  -0.498289
    50  C   -0.325347
    51  C   -0.129602
    53  F   -0.279379
    54  F   -0.354050
    55  F   -0.351060
    56  F   -0.352010
    57  F   -0.278159
    58  F   -0.278889
    59  F   -0.355599
    60  F   -0.352148
    61  F   -0.353810
    62  F   -0.279130
    63  F   -0.270064
    64  F   -0.352325
    65  F   -0.351474
    66  F   -0.353396
    67  F   -0.276155
    69  O   -0.554171
    70  C    0.320437
    71  C    0.011563
    73  S    0.000306
 Electronic spatial extent (au):  <R**2>=          57388.3060
 Charge=             -1.0000 electrons
 Dipole moment (field-independent basis, Debye):
    X=              1.8295    Y=              4.6434    Z=              2.3993  Tot=              5.5376
 Quadrupole moment (field-independent basis, Debye-Ang):
   XX=           -453.0381   YY=           -438.5504   ZZ=           -410.3999
   XY=             -4.2062   XZ=             -0.5583   YZ=             -5.8306
 Traceless Quadrupole moment (field-independent basis, Debye-Ang):
   XX=            -19.0420   YY=             -4.5543   ZZ=             23.5962
   XY=             -4.2062   XZ=             -0.5583   YZ=             -5.8306
 Octapole moment (field-independent basis, Debye-Ang**2):
  XXX=            141.2641  YYY=             13.0830  ZZZ=             24.5294  XYY=            -75.8333
  XXY=            100.5384  XXZ=             -8.9142  XZZ=             22.4348  YZZ=             44.9835
  YYZ=             57.7525  XYZ=             62.6274
 Hexadecapole moment (field-independent basis, Debye-Ang**3):
 XXXX=         -44658.8744 YYYY=         -29856.8028 ZZZZ=          -5281.0037 XXXY=           1336.5732
 XXXZ=            -58.5820 YYYX=          -1433.6047 YYYZ=           -144.2113 ZZZX=            -76.0287
 ZZZY=           -142.8104 XXYY=         -12151.0952 XXZZ=          -8292.6998 YYZZ=          -5943.2405
 XXYZ=             80.9601 YYXZ=           -101.9516 ZZXY=            -84.2288
 N-N= 1.015485957895D+04 E-N=-2.968309789338D+04  KE= 3.880642260854D+03
 Unable to Open any file for archive entry.
 1\1\GINC-CCNN779\FOpt\RB3LYP\GenECP\C42H10F15N4Ni1O1S1(1-)\CPI\21-Oct-
 2021\0\\# opt b3lyp/genecp geom=connectivity scf=maxcyc=1000\\title\\-
 1,1\C,-1.2506660658,-2.5353780854,-0.8106755207\C,1.2696050828,2.86403
 70962,-0.1876493664\C,3.4238224691,2.5593954859,0.4056283994\C,2.73196
 52985,1.299077679,0.3298686065\C,2.6932913882,-1.1479398041,0.11231727
 38\C,2.4291268923,-3.2439479789,-0.663866875\C,1.2251853321,-2.5012300
 126,-0.7857571241\C,-1.1776271831,2.8910364608,-0.2764141754\C,-2.4482
 524183,3.5721463151,-0.1601584731\C,-2.68514213,-1.1028035457,0.041647
 7169\C,-3.3611482273,-2.3411516706,-0.063900188\C,-2.6950403658,1.3563
 715916,0.1688007058\H,-4.3978218592,-2.514773859,0.1875806151\H,-2.600
 8255319,4.6363562738,-0.2724156574\H,4.4642884715,2.6871977103,0.67056
 78119\N,1.3775259022,-1.2346662429,-0.3032568722\N,-1.3767924177,-1.24
 06535198,-0.3757876985\N,1.4072436478,1.50999285,-0.0274873623\N,-1.34
 89031072,1.5407240947,-0.1051167282\C,2.5324499866,3.524816646,0.04461
 73409\H,2.7020292362,4.5904407855,-0.0218722501\C,3.3461461298,-2.4063
 844213,-0.0690033422\H,4.3757386411,-2.6219897344,0.1822391599\C,-2.48
 38662622,-3.2602200363,-0.627003515\C,-3.3746883921,2.6288258765,0.161
 1557338\H,-4.4297562796,2.7751291276,0.3466714067\C,0.0001816028,-3.08
 99562927,-1.2971392709\C,-3.3097749033,0.128229438,0.3324539804\C,3.32
 69514726,0.0545542616,0.4698124215\C,0.0574079746,3.5335086267,-0.4027
 911491\C,4.7543349825,-0.0141025244,0.9097425156\C,5.8196409082,0.1416
 025957,0.0155024903\C,5.0922391787,-0.2571876288,2.2460527307\C,7.1511
 263251,0.0657041726,0.4215929205\C,6.4151818423,-0.3386821232,2.678025
 0007\C,7.4490066481,-0.1760068575,1.7599046929\C,0.0900197566,5.008872
 109,-0.6241105269\C,0.349793974,5.550866639,-1.8900097389\C,-0.1219188
 97,5.9308807202,0.4095220947\C,0.3944879337,6.924675278,-2.1228953556\
 C,-0.0869056246,7.3091525802,0.2038627539\C,0.1730874657,7.8077802382,
 -1.0697435845\C,-4.7522715197,0.0978593378,0.7255461067\C,-5.784447588
 9,0.181555926,-0.2160325314\C,-5.1388200555,-0.0314310982,2.0644426484
 \C,-7.1298553902,0.1452834933,0.1470188547\C,-6.4766557056,-0.07214749
 68,2.4542569227\C,-7.4762412662,0.0164522938,1.4893440392\Ni,0.0161537
 387,0.1478479279,-0.2163116981\C,-2.8279197161,-4.6607644512,-0.863801
 913\C,-3.072268054,-6.8398971745,-1.7082936272\H,-1.6241341509,-5.3447
 545739,-2.5080188939\F,4.1278395252,-0.4158574681,3.1666751601\F,6.702
 4386546,-0.5688724979,3.9714859885\F,8.7279702379,-0.2503857553,2.1635
 929678\F,8.1497584763,0.2228849416,-0.4657289071\F,5.5807023846,0.3723
 065186,-1.2858267093\F,0.5631342914,4.7395117339,-2.938701564\F,0.6434
 639347,7.4057153068,-3.3541456514\F,0.2110901764,9.1339688067,-1.28080
 83055\F,-0.2949031607,8.1620801423,1.2236782993\F,-0.3622117626,5.4994
 52395,1.6594797104\F,-5.4975371429,0.3063662688,-1.5221892978\F,-8.095
 4914968,0.2339497896,-0.7850063878\F,-8.7690344312,-0.0184650359,1.851
 9595703\F,-6.8108585676,-0.1929738948,3.751259298\F,-4.2082655418,-0.1
 172350945,3.0288084168\H,-2.8624617878,-7.6761644352,-2.3672129646\O,0
 .0513312314,-4.0945237136,-2.035519628\C,-2.4034680413,-5.5826215019,-
 1.7986720246\C,-4.006523195,-6.8873303911,-0.7064726344\H,-4.645270779
 9,-7.7115876427,-0.4181044141\S,-4.0765658465,-5.3850105263,0.15599295
 71\H,2.543656592,-4.2707951347,-0.9789877851\\Version=ES64L-G16RevC.01
 \State=1-A\HF=-3965.9862658\RMSD=6.768e-09\RMSF=4.128e-06\Dipole=0.027
 9793,2.0092725,0.8417532\Quadrupole=-10.9670076,-7.0087773,17.9757849,
 -5.6881899,0.460322,-3.1210107\PG=C01 [X(C42H10F15N4Ni1O1S1)]\\@
 The archive entry for this job was punched.


 BLESSED ARE THOSE WHO NOUGHT EXPECT,
 FOR THEY SHALL NOT BE DISAPPOINTED..  WALCOT - ODE TO PITT
 Job cpu time:       9 days 17 hours 15 minutes 45.1 seconds.
 Elapsed time:       0 days 14 hours 35 minutes 47.1 seconds.
 File lengths (MBytes):  RWF=    861 Int=      0 D2E=      0 Chk=    134 Scr=      1
 Normal termination of Gaussian 16 at Thu Oct 21 06:13:50 2021.
