 Entering Gaussian System, Link 0=/local/apl/lx/g16c01/g16/._.g16
 Initial command:
 /local/apl/lx/g16c01/g16/l1.exe "/work/users/cpi/5188800.cccms1/Gau-173349.inp" -scrdir="/work/users/cpi/5188800.cccms1/"
 Default CPUs for threads: 0,1,2,3,4,5,6,7,8,9,10,11,12,13,14,15,16,17
 Default is to use a total of  18 processors:
                               18 via shared-memory
                                1 via Linda
 Entering Link 1 = /local/apl/lx/g16c01/g16/l1.exe PID=    173350.
  
 Copyright (c) 1988-2019, Gaussian, Inc.  All Rights Reserved.
  
 This is part of the Gaussian(R) 16 program.  It is based on
 the Gaussian(R) 09 system (copyright 2009, Gaussian, Inc.),
 the Gaussian(R) 03 system (copyright 2003, Gaussian, Inc.),
 the Gaussian(R) 98 system (copyright 1998, Gaussian, Inc.),
 the Gaussian(R) 94 system (copyright 1995, Gaussian, Inc.),
 the Gaussian 92(TM) system (copyright 1992, Gaussian, Inc.),
 the Gaussian 90(TM) system (copyright 1990, Gaussian, Inc.),
 the Gaussian 88(TM) system (copyright 1988, Gaussian, Inc.),
 the Gaussian 86(TM) system (copyright 1986, Carnegie Mellon
 University), and the Gaussian 82(TM) system (copyright 1983,
 Carnegie Mellon University). Gaussian is a federally registered
 trademark of Gaussian, Inc.
  
 This software contains proprietary and confidential information,
 including trade secrets, belonging to Gaussian, Inc.
  
 This software is provided under written license and may be
 used, copied, transmitted, or stored only in accord with that
 written license.
  
 The following legend is applicable only to US Government
 contracts under FAR:
  
                    RESTRICTED RIGHTS LEGEND
  
 Use, reproduction and disclosure by the US Government is
 subject to restrictions as set forth in subparagraphs (a)
 and (c) of the Commercial Computer Software - Restricted
 Rights clause in FAR 52.227-19.
  
 Gaussian, Inc.
 340 Quinnipiac St., Bldg. 40, Wallingford CT 06492
  
  
 ---------------------------------------------------------------
 Warning -- This program may not be used in any manner that
 competes with the business of Gaussian, Inc. or will provide
 assistance to any competitor of Gaussian, Inc.  The licensee
 of this program is prohibited from giving any competitor of
 Gaussian, Inc. access to this program.  By using this program,
 the user acknowledges that Gaussian, Inc. is engaged in the
 business of creating and licensing software in the field of
 computational chemistry and represents and warrants to the
 licensee that it is not a competitor of Gaussian, Inc. and that
 it will not use this program in any manner prohibited above.
 ---------------------------------------------------------------
  

 Cite this work as:
 Gaussian 16, Revision C.01,
 M. J. Frisch, G. W. Trucks, H. B. Schlegel, G. E. Scuseria, 
 M. A. Robb, J. R. Cheeseman, G. Scalmani, V. Barone, 
 G. A. Petersson, H. Nakatsuji, X. Li, M. Caricato, A. V. Marenich, 
 J. Bloino, B. G. Janesko, R. Gomperts, B. Mennucci, H. P. Hratchian, 
 J. V. Ortiz, A. F. Izmaylov, J. L. Sonnenberg, D. Williams-Young, 
 F. Ding, F. Lipparini, F. Egidi, J. Goings, B. Peng, A. Petrone, 
 T. Henderson, D. Ranasinghe, V. G. Zakrzewski, J. Gao, N. Rega, 
 G. Zheng, W. Liang, M. Hada, M. Ehara, K. Toyota, R. Fukuda, 
 J. Hasegawa, M. Ishida, T. Nakajima, Y. Honda, O. Kitao, H. Nakai, 
 T. Vreven, K. Throssell, J. A. Montgomery, Jr., J. E. Peralta, 
 F. Ogliaro, M. J. Bearpark, J. J. Heyd, E. N. Brothers, K. N. Kudin, 
 V. N. Staroverov, T. A. Keith, R. Kobayashi, J. Normand, 
 K. Raghavachari, A. P. Rendell, J. C. Burant, S. S. Iyengar, 
 J. Tomasi, M. Cossi, J. M. Millam, M. Klene, C. Adamo, R. Cammi, 
 J. W. Ochterski, R. L. Martin, K. Morokuma, O. Farkas, 
 J. B. Foresman, and D. J. Fox, Gaussian, Inc., Wallingford CT, 2019.
 
 ******************************************
 Gaussian 16:  ES64L-G16RevC.01  3-Jul-2019
                20-Nov-2021 
 ******************************************
 %mem=100GB
 %nprocshare=16
 Will use up to   16 processors via shared memory.
 %chk=Ni_3C6F5_Por_difuran_O-.chk
 ----------------------------------------------------
 # opt b3lyp/genecp geom=connectivity scf=maxcyc=1000
 ----------------------------------------------------
 1/18=20,19=15,26=3,38=1,57=2/1,3;
 2/9=110,12=2,17=6,18=5,40=1/2;
 3/5=7,11=2,16=1,17=8,25=1,30=1,71=1,74=-5/1,2,3;
 4//1;
 5/5=2,7=1000,38=5/2;
 6/7=2,8=2,9=2,10=2,28=1/1;
 7//1,2,3,16;
 1/18=20,19=15,26=3/3(2);
 2/9=110/2;
 99//99;
 2/9=110/2;
 3/5=7,6=1,11=2,16=1,17=8,25=1,30=1,71=1,74=-5,82=7/1,2,3;
 4/5=5,16=3,69=1/1;
 5/5=2,7=1000,38=5/2;
 7//1,2,3,16;
 1/18=20,19=15,26=3/3(-5);
 2/9=110/2;
 6/7=2,8=2,9=2,10=2,19=2,28=1/1;
 99/9=1/99;
 -----
 title
 -----
 Symbolic Z-matrix:
 Charge = -1 Multiplicity = 1
 C                    -1.24967  -2.33664  -0.92263 
 C                     1.20955   2.7929   -0.29982 
 C                     3.4644    2.57969   0.29687 
 C                     2.75834   1.23611   0.24225 
 C                     2.65026  -1.06998   0.12712 
 C                     2.35638  -3.09248  -0.71858 
 C                     1.18761  -2.3736   -0.9094 
 C                    -1.14887   2.86192  -0.20508 
 C                    -2.48889   3.58896   0.00936 
 C                    -2.68511  -0.99655   0.11247 
 C                    -3.28508  -2.24465   0.013 
 C                    -2.7325    1.314     0.28681 
 H                    -4.2332   -2.53933   0.40742 
 H                    -2.65123   4.63971  -0.09204 
 H                     4.47479   2.75715   0.59957 
 N                     1.30348  -1.15183  -0.38376 
 N                    -1.33322  -1.11089  -0.38886 
 N                     1.34608   1.47561  -0.1357 
 N                    -1.31317   1.52164  -0.06699 
 C                     2.56853   3.49739  -0.10175 
 H                     2.75583   4.54019  -0.22997 
 C                     3.22553  -2.32538   0.03145 
 H                     4.16173  -2.64076   0.43802 
 C                    -2.43062  -3.03262  -0.73371 
 C                    -3.41135   2.67612   0.35679 
 H                    -4.42579   2.86667   0.63103 
 C                    -0.03336  -2.9204   -1.56259 
 C                    -3.316     0.13678   0.52357 
 C                     3.31096   0.05231   0.51845 
 C                     0.04199   3.48949  -0.51409 
 C                     4.66341  -0.07395   1.21603 
 C                     5.80653   0.17391   0.46692 
 C                     4.76003  -0.43955   2.56807 
 C                     7.06535  -0.00258   1.04175 
 C                     6.02189  -0.52273   3.17174 
 C                     7.17586  -0.32991   2.3999 
 C                     0.06913   4.94577  -1.01713 
 C                     0.318     5.23316  -2.37522 
 C                    -0.15531   5.98579  -0.11645 
 C                     0.29509   6.56503  -2.82159 
 C                    -0.08489   7.31608  -0.54766 
 C                     0.11712   7.60655  -1.90249 
 C                    -4.68102   0.03666   1.19034 
 C                    -5.80908   0.30581   0.42581 
 C                    -4.7979   -0.32691   2.53827 
 C                    -7.07731   0.15703   0.98736 
 C                    -6.06575  -0.38122   3.12882 
 C                    -7.20782  -0.16456   2.34523 
 Ni                    0.00555   0.1815   -0.26237 
 C                    -2.74528  -4.44185  -1.21195 
 C                    -2.96199  -6.42788  -2.55272 
 H                    -1.58044  -4.60848  -3.0246 
 C                     2.64267  -4.50661  -1.19297 
 C                     2.82654  -6.492    -2.53899 
 H                     1.48901  -4.64146  -3.01674 
 F                     3.64457  -0.66692   3.29822 
 F                     6.12707  -0.7788    4.4942 
 F                     8.39454  -0.45917   2.96289 
 F                     8.17153   0.13226   0.28284 
 F                     5.68902   0.53458  -0.82737 
 F                     0.53159   4.23306  -3.25878 
 F                     0.43466   6.84474  -4.13633 
 F                     0.14024   8.89007  -2.3212 
 F                    -0.20187   8.31939   0.34687 
 F                    -0.39377   5.70564   1.18123 
 F                    -5.67055   0.65948  -0.86906 
 F                    -8.17317   0.31295   0.21704 
 F                    -8.43373  -0.2651    2.89718 
 F                    -6.18806  -0.63186   4.45036 
 F                    -3.69382  -0.57897   3.27704 
 H                     2.61977  -7.12971  -3.37102 
 H                    -2.76358  -7.07189  -3.38242 
 O                    -0.04129  -3.81909  -2.44618 
 C                     2.18305  -5.09303  -2.33391 
 C                    -2.28994  -5.04222  -2.34629 
 C                    -3.84959  -6.722    -1.56145 
 H                    -4.50038  -7.56538  -1.55142 
 C                     3.70064  -6.8073   -1.54203 
 H                     4.33201  -7.66495  -1.52858 
 O                    -3.79502  -5.51256  -0.28762 
 O                     3.66391  -5.59981  -0.26612 
 

 GradGradGradGradGradGradGradGradGradGradGradGradGradGradGradGradGradGrad
 Berny optimization.
 Initialization pass.
                           ----------------------------
                           !    Initial Parameters    !
                           ! (Angstroms and Degrees)  !
 --------------------------                            --------------------------
 ! Name  Definition              Value          Derivative Info.                !
 --------------------------------------------------------------------------------
 ! R1    R(1,17)                 1.3395         estimate D2E/DX2                !
 ! R2    R(1,24)                 1.3837         estimate D2E/DX2                !
 ! R3    R(1,27)                 1.4932         estimate D2E/DX2                !
 ! R4    R(2,18)                 1.3345         estimate D2E/DX2                !
 ! R5    R(2,20)                 1.5435         estimate D2E/DX2                !
 ! R6    R(2,30)                 1.3764         estimate D2E/DX2                !
 ! R7    R(3,4)                  1.5188         estimate D2E/DX2                !
 ! R8    R(3,15)                 1.0696         estimate D2E/DX2                !
 ! R9    R(3,20)                 1.343          estimate D2E/DX2                !
 ! R10   R(4,18)                 1.4814         estimate D2E/DX2                !
 ! R11   R(4,29)                 1.3353         estimate D2E/DX2                !
 ! R12   R(5,16)                 1.4427         estimate D2E/DX2                !
 ! R13   R(5,22)                 1.3842         estimate D2E/DX2                !
 ! R14   R(5,29)                 1.3599         estimate D2E/DX2                !
 ! R15   R(6,7)                  1.3854         estimate D2E/DX2                !
 ! R16   R(6,22)                 1.3807         estimate D2E/DX2                !
 ! R17   R(6,53)                 1.5188         estimate D2E/DX2                !
 ! R18   R(7,16)                 1.3351         estimate D2E/DX2                !
 ! R19   R(7,27)                 1.4888         estimate D2E/DX2                !
 ! R20   R(8,9)                  1.5395         estimate D2E/DX2                !
 ! R21   R(8,19)                 1.3574         estimate D2E/DX2                !
 ! R22   R(8,30)                 1.3811         estimate D2E/DX2                !
 ! R23   R(9,14)                 1.068          estimate D2E/DX2                !
 ! R24   R(9,25)                 1.3435         estimate D2E/DX2                !
 ! R25   R(10,11)                1.3884         estimate D2E/DX2                !
 ! R26   R(10,17)                1.4464         estimate D2E/DX2                !
 ! R27   R(10,28)                1.3607         estimate D2E/DX2                !
 ! R28   R(11,13)                1.0683         estimate D2E/DX2                !
 ! R29   R(11,24)                1.3815         estimate D2E/DX2                !
 ! R30   R(12,19)                1.4774         estimate D2E/DX2                !
 ! R31   R(12,25)                1.5235         estimate D2E/DX2                !
 ! R32   R(12,28)                1.3351         estimate D2E/DX2                !
 ! R33   R(16,49)                1.8647         estimate D2E/DX2                !
 ! R34   R(17,49)                1.8651         estimate D2E/DX2                !
 ! R35   R(18,49)                1.8676         estimate D2E/DX2                !
 ! R36   R(19,49)                1.8903         estimate D2E/DX2                !
 ! R37   R(20,21)                1.0672         estimate D2E/DX2                !
 ! R38   R(22,23)                1.0683         estimate D2E/DX2                !
 ! R39   R(24,50)                1.5211         estimate D2E/DX2                !
 ! R40   R(25,26)                1.068          estimate D2E/DX2                !
 ! R41   R(27,73)                1.2603         estimate D2E/DX2                !
 ! R42   R(28,43)                1.5225         estimate D2E/DX2                !
 ! R43   R(29,31)                1.527          estimate D2E/DX2                !
 ! R44   R(30,37)                1.5409         estimate D2E/DX2                !
 ! R45   R(31,32)                1.389          estimate D2E/DX2                !
 ! R46   R(31,33)                1.4039         estimate D2E/DX2                !
 ! R47   R(32,34)                1.3951         estimate D2E/DX2                !
 ! R48   R(32,60)                1.3487         estimate D2E/DX2                !
 ! R49   R(33,35)                1.4013         estimate D2E/DX2                !
 ! R50   R(33,56)                1.3524         estimate D2E/DX2                !
 ! R51   R(34,36)                1.4014         estimate D2E/DX2                !
 ! R52   R(34,59)                1.3482         estimate D2E/DX2                !
 ! R53   R(35,36)                1.4016         estimate D2E/DX2                !
 ! R54   R(35,57)                1.3511         estimate D2E/DX2                !
 ! R55   R(36,58)                1.3486         estimate D2E/DX2                !
 ! R56   R(37,38)                1.4103         estimate D2E/DX2                !
 ! R57   R(37,39)                1.394          estimate D2E/DX2                !
 ! R58   R(38,40)                1.4049         estimate D2E/DX2                !
 ! R59   R(38,61)                1.3515         estimate D2E/DX2                !
 ! R60   R(39,41)                1.4002         estimate D2E/DX2                !
 ! R61   R(39,65)                1.3488         estimate D2E/DX2                !
 ! R62   R(40,42)                1.4004         estimate D2E/DX2                !
 ! R63   R(40,62)                1.3514         estimate D2E/DX2                !
 ! R64   R(41,42)                1.4003         estimate D2E/DX2                !
 ! R65   R(41,64)                1.3493         estimate D2E/DX2                !
 ! R66   R(42,63)                1.3503         estimate D2E/DX2                !
 ! R67   R(43,44)                1.3891         estimate D2E/DX2                !
 ! R68   R(43,45)                1.401          estimate D2E/DX2                !
 ! R69   R(44,46)                1.3949         estimate D2E/DX2                !
 ! R70   R(44,66)                1.3494         estimate D2E/DX2                !
 ! R71   R(45,47)                1.3997         estimate D2E/DX2                !
 ! R72   R(45,70)                1.3522         estimate D2E/DX2                !
 ! R73   R(46,48)                1.4015         estimate D2E/DX2                !
 ! R74   R(46,67)                1.3486         estimate D2E/DX2                !
 ! R75   R(47,48)                1.4019         estimate D2E/DX2                !
 ! R76   R(47,69)                1.3506         estimate D2E/DX2                !
 ! R77   R(48,68)                1.3482         estimate D2E/DX2                !
 ! R78   R(50,75)                1.3618         estimate D2E/DX2                !
 ! R79   R(50,80)                1.7615         estimate D2E/DX2                !
 ! R80   R(51,72)                1.0689         estimate D2E/DX2                !
 ! R81   R(51,75)                1.5538         estimate D2E/DX2                !
 ! R82   R(51,76)                1.3627         estimate D2E/DX2                !
 ! R83   R(52,75)                1.0731         estimate D2E/DX2                !
 ! R84   R(53,74)                1.3627         estimate D2E/DX2                !
 ! R85   R(53,81)                1.7598         estimate D2E/DX2                !
 ! R86   R(54,71)                1.0685         estimate D2E/DX2                !
 ! R87   R(54,74)                1.5535         estimate D2E/DX2                !
 ! R88   R(54,78)                1.3629         estimate D2E/DX2                !
 ! R89   R(55,74)                1.0733         estimate D2E/DX2                !
 ! R90   R(76,77)                1.0653         estimate D2E/DX2                !
 ! R91   R(76,80)                1.7574         estimate D2E/DX2                !
 ! R92   R(78,79)                1.0651         estimate D2E/DX2                !
 ! R93   R(78,81)                1.7571         estimate D2E/DX2                !
 ! A1    A(17,1,24)            110.6473         estimate D2E/DX2                !
 ! A2    A(17,1,27)            125.4021         estimate D2E/DX2                !
 ! A3    A(24,1,27)            123.8527         estimate D2E/DX2                !
 ! A4    A(18,2,20)            110.1629         estimate D2E/DX2                !
 ! A5    A(18,2,30)            127.2673         estimate D2E/DX2                !
 ! A6    A(20,2,30)            122.4022         estimate D2E/DX2                !
 ! A7    A(4,3,15)             126.5917         estimate D2E/DX2                !
 ! A8    A(4,3,20)             106.4821         estimate D2E/DX2                !
 ! A9    A(15,3,20)            126.9253         estimate D2E/DX2                !
 ! A10   A(3,4,18)             108.019          estimate D2E/DX2                !
 ! A11   A(3,4,29)             125.7631         estimate D2E/DX2                !
 ! A12   A(18,4,29)            126.2006         estimate D2E/DX2                !
 ! A13   A(16,5,22)            108.1809         estimate D2E/DX2                !
 ! A14   A(16,5,29)            127.033          estimate D2E/DX2                !
 ! A15   A(22,5,29)            124.5031         estimate D2E/DX2                !
 ! A16   A(7,6,22)             108.5179         estimate D2E/DX2                !
 ! A17   A(7,6,53)             126.8094         estimate D2E/DX2                !
 ! A18   A(22,6,53)            124.6314         estimate D2E/DX2                !
 ! A19   A(6,7,16)             110.3295         estimate D2E/DX2                !
 ! A20   A(6,7,27)             124.1765         estimate D2E/DX2                !
 ! A21   A(16,7,27)            125.453          estimate D2E/DX2                !
 ! A22   A(9,8,19)             110.2903         estimate D2E/DX2                !
 ! A23   A(9,8,30)             124.5462         estimate D2E/DX2                !
 ! A24   A(19,8,30)            125.1563         estimate D2E/DX2                !
 ! A25   A(8,9,14)             125.7092         estimate D2E/DX2                !
 ! A26   A(8,9,25)             108.2271         estimate D2E/DX2                !
 ! A27   A(14,9,25)            126.0611         estimate D2E/DX2                !
 ! A28   A(11,10,17)           107.9393         estimate D2E/DX2                !
 ! A29   A(11,10,28)           124.7526         estimate D2E/DX2                !
 ! A30   A(17,10,28)           127.152          estimate D2E/DX2                !
 ! A31   A(10,11,13)           127.2305         estimate D2E/DX2                !
 ! A32   A(10,11,24)           106.5102         estimate D2E/DX2                !
 ! A33   A(13,11,24)           126.2367         estimate D2E/DX2                !
 ! A34   A(19,12,25)           108.2653         estimate D2E/DX2                !
 ! A35   A(19,12,28)           125.8922         estimate D2E/DX2                !
 ! A36   A(25,12,28)           125.8361         estimate D2E/DX2                !
 ! A37   A(5,16,7)             105.8044         estimate D2E/DX2                !
 ! A38   A(5,16,49)            125.8828         estimate D2E/DX2                !
 ! A39   A(7,16,49)            128.2847         estimate D2E/DX2                !
 ! A40   A(1,17,10)            105.59           estimate D2E/DX2                !
 ! A41   A(1,17,49)            128.0487         estimate D2E/DX2                !
 ! A42   A(10,17,49)           126.3432         estimate D2E/DX2                !
 ! A43   A(2,18,4)             106.7675         estimate D2E/DX2                !
 ! A44   A(2,18,49)            127.0301         estimate D2E/DX2                !
 ! A45   A(4,18,49)            126.1257         estimate D2E/DX2                !
 ! A46   A(8,19,12)            106.2251         estimate D2E/DX2                !
 ! A47   A(8,19,49)            127.2351         estimate D2E/DX2                !
 ! A48   A(12,19,49)           126.5351         estimate D2E/DX2                !
 ! A49   A(2,20,3)             108.2714         estimate D2E/DX2                !
 ! A50   A(2,20,21)            125.8099         estimate D2E/DX2                !
 ! A51   A(3,20,21)            125.8929         estimate D2E/DX2                !
 ! A52   A(5,22,6)             106.2481         estimate D2E/DX2                !
 ! A53   A(5,22,23)            127.2756         estimate D2E/DX2                !
 ! A54   A(6,22,23)            126.4679         estimate D2E/DX2                !
 ! A55   A(1,24,11)            108.3468         estimate D2E/DX2                !
 ! A56   A(1,24,50)            126.8425         estimate D2E/DX2                !
 ! A57   A(11,24,50)           124.7798         estimate D2E/DX2                !
 ! A58   A(9,25,12)            106.8371         estimate D2E/DX2                !
 ! A59   A(9,25,26)            126.6819         estimate D2E/DX2                !
 ! A60   A(12,25,26)           126.4809         estimate D2E/DX2                !
 ! A61   A(1,27,7)             109.6579         estimate D2E/DX2                !
 ! A62   A(1,27,73)            125.0366         estimate D2E/DX2                !
 ! A63   A(7,27,73)            125.0756         estimate D2E/DX2                !
 ! A64   A(10,28,12)           118.569          estimate D2E/DX2                !
 ! A65   A(10,28,43)           119.5546         estimate D2E/DX2                !
 ! A66   A(12,28,43)           121.8379         estimate D2E/DX2                !
 ! A67   A(4,29,5)             118.1028         estimate D2E/DX2                !
 ! A68   A(4,29,31)            122.2994         estimate D2E/DX2                !
 ! A69   A(5,29,31)            119.5748         estimate D2E/DX2                !
 ! A70   A(2,30,8)             117.8158         estimate D2E/DX2                !
 ! A71   A(2,30,37)            120.9431         estimate D2E/DX2                !
 ! A72   A(8,30,37)            121.175          estimate D2E/DX2                !
 ! A73   A(29,31,32)           117.8905         estimate D2E/DX2                !
 ! A74   A(29,31,33)           121.4956         estimate D2E/DX2                !
 ! A75   A(32,31,33)           120.6117         estimate D2E/DX2                !
 ! A76   A(31,32,34)           119.8554         estimate D2E/DX2                !
 ! A77   A(31,32,60)           119.5748         estimate D2E/DX2                !
 ! A78   A(34,32,60)           120.5213         estimate D2E/DX2                !
 ! A79   A(31,33,35)           119.492          estimate D2E/DX2                !
 ! A80   A(31,33,56)           120.4608         estimate D2E/DX2                !
 ! A81   A(35,33,56)           120.0102         estimate D2E/DX2                !
 ! A82   A(32,34,36)           120.002          estimate D2E/DX2                !
 ! A83   A(32,34,59)           119.7194         estimate D2E/DX2                !
 ! A84   A(36,34,59)           120.2763         estimate D2E/DX2                !
 ! A85   A(33,35,36)           119.7349         estimate D2E/DX2                !
 ! A86   A(33,35,57)           120.1994         estimate D2E/DX2                !
 ! A87   A(36,35,57)           120.0642         estimate D2E/DX2                !
 ! A88   A(34,36,35)           120.0589         estimate D2E/DX2                !
 ! A89   A(34,36,58)           119.8815         estimate D2E/DX2                !
 ! A90   A(35,36,58)           120.0597         estimate D2E/DX2                !
 ! A91   A(30,37,38)           120.6676         estimate D2E/DX2                !
 ! A92   A(30,37,39)           119.4272         estimate D2E/DX2                !
 ! A93   A(38,37,39)           119.9052         estimate D2E/DX2                !
 ! A94   A(37,38,40)           119.7549         estimate D2E/DX2                !
 ! A95   A(37,38,61)           120.4416         estimate D2E/DX2                !
 ! A96   A(40,38,61)           119.7622         estimate D2E/DX2                !
 ! A97   A(37,39,41)           120.1154         estimate D2E/DX2                !
 ! A98   A(37,39,65)           119.6774         estimate D2E/DX2                !
 ! A99   A(41,39,65)           120.166          estimate D2E/DX2                !
 ! A100  A(38,40,42)           119.9083         estimate D2E/DX2                !
 ! A101  A(38,40,62)           120.2424         estimate D2E/DX2                !
 ! A102  A(42,40,62)           119.8476         estimate D2E/DX2                !
 ! A103  A(39,41,42)           120.1528         estimate D2E/DX2                !
 ! A104  A(39,41,64)           119.8634         estimate D2E/DX2                !
 ! A105  A(42,41,64)           119.9818         estimate D2E/DX2                !
 ! A106  A(40,42,41)           119.9381         estimate D2E/DX2                !
 ! A107  A(40,42,63)           120.0827         estimate D2E/DX2                !
 ! A108  A(41,42,63)           119.9791         estimate D2E/DX2                !
 ! A109  A(28,43,44)           118.3164         estimate D2E/DX2                !
 ! A110  A(28,43,45)           120.8797         estimate D2E/DX2                !
 ! A111  A(44,43,45)           120.8023         estimate D2E/DX2                !
 ! A112  A(43,44,46)           119.7428         estimate D2E/DX2                !
 ! A113  A(43,44,66)           119.706          estimate D2E/DX2                !
 ! A114  A(46,44,66)           120.5021         estimate D2E/DX2                !
 ! A115  A(43,45,47)           119.4444         estimate D2E/DX2                !
 ! A116  A(43,45,70)           120.3929         estimate D2E/DX2                !
 ! A117  A(47,45,70)           120.1238         estimate D2E/DX2                !
 ! A118  A(44,46,48)           119.9442         estimate D2E/DX2                !
 ! A119  A(44,46,67)           119.7698         estimate D2E/DX2                !
 ! A120  A(48,46,67)           120.2838         estimate D2E/DX2                !
 ! A121  A(45,47,48)           119.7422         estimate D2E/DX2                !
 ! A122  A(45,47,69)           120.1358         estimate D2E/DX2                !
 ! A123  A(48,47,69)           120.1203         estimate D2E/DX2                !
 ! A124  A(46,48,47)           120.0759         estimate D2E/DX2                !
 ! A125  A(46,48,68)           119.897          estimate D2E/DX2                !
 ! A126  A(47,48,68)           120.0271         estimate D2E/DX2                !
 ! A127  A(16,49,17)            89.9849         estimate D2E/DX2                !
 ! A128  A(16,49,18)            90.0153         estimate D2E/DX2                !
 ! A129  A(17,49,19)            89.8577         estimate D2E/DX2                !
 ! A130  A(18,49,19)            90.1421         estimate D2E/DX2                !
 ! A131  A(24,50,75)           126.9538         estimate D2E/DX2                !
 ! A132  A(24,50,80)           121.4302         estimate D2E/DX2                !
 ! A133  A(75,50,80)           111.6158         estimate D2E/DX2                !
 ! A134  A(72,51,75)           124.0659         estimate D2E/DX2                !
 ! A135  A(72,51,76)           123.7462         estimate D2E/DX2                !
 ! A136  A(75,51,76)           112.1825         estimate D2E/DX2                !
 ! A137  A(6,53,74)            126.7718         estimate D2E/DX2                !
 ! A138  A(6,53,81)            121.5515         estimate D2E/DX2                !
 ! A139  A(74,53,81)           111.6764         estimate D2E/DX2                !
 ! A140  A(71,54,74)           124.0633         estimate D2E/DX2                !
 ! A141  A(71,54,78)           123.7563         estimate D2E/DX2                !
 ! A142  A(74,54,78)           112.1756         estimate D2E/DX2                !
 ! A143  A(53,74,54)           110.9998         estimate D2E/DX2                !
 ! A144  A(53,74,55)           124.7325         estimate D2E/DX2                !
 ! A145  A(54,74,55)           124.2487         estimate D2E/DX2                !
 ! A146  A(50,75,51)           111.0513         estimate D2E/DX2                !
 ! A147  A(50,75,52)           124.707          estimate D2E/DX2                !
 ! A148  A(51,75,52)           124.2234         estimate D2E/DX2                !
 ! A149  A(51,76,77)           125.143          estimate D2E/DX2                !
 ! A150  A(51,76,80)           111.0086         estimate D2E/DX2                !
 ! A151  A(77,76,80)           123.8469         estimate D2E/DX2                !
 ! A152  A(54,78,79)           125.1511         estimate D2E/DX2                !
 ! A153  A(54,78,81)           111.0263         estimate D2E/DX2                !
 ! A154  A(79,78,81)           123.8216         estimate D2E/DX2                !
 ! A155  A(50,80,76)            93.2375         estimate D2E/DX2                !
 ! A156  A(53,81,78)            93.244          estimate D2E/DX2                !
 ! A157  L(16,49,19,18,-1)     180.1574         estimate D2E/DX2                !
 ! A158  L(17,49,18,19,-1)     179.9998         estimate D2E/DX2                !
 ! A159  L(16,49,19,18,-2)     182.2159         estimate D2E/DX2                !
 ! A160  L(17,49,18,19,-2)     179.9999         estimate D2E/DX2                !
 ! D1    D(24,1,17,10)          -3.0997         estimate D2E/DX2                !
 ! D2    D(24,1,17,49)         175.417          estimate D2E/DX2                !
 ! D3    D(27,1,17,10)        -179.6058         estimate D2E/DX2                !
 ! D4    D(27,1,17,49)          -1.089          estimate D2E/DX2                !
 ! D5    D(17,1,24,11)          -3.1449         estimate D2E/DX2                !
 ! D6    D(17,1,24,50)         178.8123         estimate D2E/DX2                !
 ! D7    D(27,1,24,11)         173.4258         estimate D2E/DX2                !
 ! D8    D(27,1,24,50)          -4.617          estimate D2E/DX2                !
 ! D9    D(17,1,27,7)           31.477          estimate D2E/DX2                !
 ! D10   D(17,1,27,73)        -153.8089         estimate D2E/DX2                !
 ! D11   D(24,1,27,7)         -144.5854         estimate D2E/DX2                !
 ! D12   D(24,1,27,73)          30.1288         estimate D2E/DX2                !
 ! D13   D(20,2,18,4)            2.8054         estimate D2E/DX2                !
 ! D14   D(20,2,18,49)         179.7578         estimate D2E/DX2                !
 ! D15   D(30,2,18,4)         -172.5369         estimate D2E/DX2                !
 ! D16   D(30,2,18,49)           4.4155         estimate D2E/DX2                !
 ! D17   D(18,2,20,3)           -5.4627         estimate D2E/DX2                !
 ! D18   D(18,2,20,21)         176.2995         estimate D2E/DX2                !
 ! D19   D(30,2,20,3)          170.1476         estimate D2E/DX2                !
 ! D20   D(30,2,20,21)          -8.0902         estimate D2E/DX2                !
 ! D21   D(18,2,30,8)           17.7371         estimate D2E/DX2                !
 ! D22   D(18,2,30,37)        -165.1856         estimate D2E/DX2                !
 ! D23   D(20,2,30,8)         -157.083          estimate D2E/DX2                !
 ! D24   D(20,2,30,37)          19.9943         estimate D2E/DX2                !
 ! D25   D(15,3,4,18)          175.8515         estimate D2E/DX2                !
 ! D26   D(15,3,4,29)           -2.7062         estimate D2E/DX2                !
 ! D27   D(20,3,4,18)           -3.8086         estimate D2E/DX2                !
 ! D28   D(20,3,4,29)          177.6337         estimate D2E/DX2                !
 ! D29   D(4,3,20,2)             5.3119         estimate D2E/DX2                !
 ! D30   D(4,3,20,21)         -176.4521         estimate D2E/DX2                !
 ! D31   D(15,3,20,2)         -174.3467         estimate D2E/DX2                !
 ! D32   D(15,3,20,21)           3.8893         estimate D2E/DX2                !
 ! D33   D(3,4,18,2)             0.3802         estimate D2E/DX2                !
 ! D34   D(3,4,18,49)         -176.6077         estimate D2E/DX2                !
 ! D35   D(29,4,18,2)          178.9298         estimate D2E/DX2                !
 ! D36   D(29,4,18,49)           1.9419         estimate D2E/DX2                !
 ! D37   D(3,4,29,5)          -164.8852         estimate D2E/DX2                !
 ! D38   D(3,4,29,31)           13.3613         estimate D2E/DX2                !
 ! D39   D(18,4,29,5)           16.8145         estimate D2E/DX2                !
 ! D40   D(18,4,29,31)        -164.939          estimate D2E/DX2                !
 ! D41   D(22,5,16,7)           -7.6286         estimate D2E/DX2                !
 ! D42   D(22,5,16,49)         170.5718         estimate D2E/DX2                !
 ! D43   D(29,5,16,7)          166.4373         estimate D2E/DX2                !
 ! D44   D(29,5,16,49)         -15.3623         estimate D2E/DX2                !
 ! D45   D(16,5,22,6)            9.8091         estimate D2E/DX2                !
 ! D46   D(16,5,22,23)        -171.1994         estimate D2E/DX2                !
 ! D47   D(29,5,22,6)         -164.4433         estimate D2E/DX2                !
 ! D48   D(29,5,22,23)          14.5482         estimate D2E/DX2                !
 ! D49   D(16,5,29,4)          -10.2325         estimate D2E/DX2                !
 ! D50   D(16,5,29,31)         171.4717         estimate D2E/DX2                !
 ! D51   D(22,5,29,4)          162.9222         estimate D2E/DX2                !
 ! D52   D(22,5,29,31)         -15.3736         estimate D2E/DX2                !
 ! D53   D(22,6,7,16)            3.7399         estimate D2E/DX2                !
 ! D54   D(22,6,7,27)         -174.0408         estimate D2E/DX2                !
 ! D55   D(53,6,7,16)         -178.523          estimate D2E/DX2                !
 ! D56   D(53,6,7,27)            3.6962         estimate D2E/DX2                !
 ! D57   D(7,6,22,5)            -8.4053         estimate D2E/DX2                !
 ! D58   D(7,6,22,23)          172.5926         estimate D2E/DX2                !
 ! D59   D(53,6,22,5)          173.7966         estimate D2E/DX2                !
 ! D60   D(53,6,22,23)          -5.2056         estimate D2E/DX2                !
 ! D61   D(7,6,53,74)           33.4269         estimate D2E/DX2                !
 ! D62   D(7,6,53,81)         -146.8061         estimate D2E/DX2                !
 ! D63   D(22,6,53,74)        -149.1812         estimate D2E/DX2                !
 ! D64   D(22,6,53,81)          30.5858         estimate D2E/DX2                !
 ! D65   D(6,7,16,5)             2.3638         estimate D2E/DX2                !
 ! D66   D(6,7,16,49)         -175.7786         estimate D2E/DX2                !
 ! D67   D(27,7,16,5)         -179.8901         estimate D2E/DX2                !
 ! D68   D(27,7,16,49)           1.9675         estimate D2E/DX2                !
 ! D69   D(6,7,27,1)           145.498          estimate D2E/DX2                !
 ! D70   D(6,7,27,73)          -29.2136         estimate D2E/DX2                !
 ! D71   D(16,7,27,1)          -31.9472         estimate D2E/DX2                !
 ! D72   D(16,7,27,73)         153.3412         estimate D2E/DX2                !
 ! D73   D(19,8,9,14)         -176.6353         estimate D2E/DX2                !
 ! D74   D(19,8,9,25)            3.9199         estimate D2E/DX2                !
 ! D75   D(30,8,9,14)            2.4382         estimate D2E/DX2                !
 ! D76   D(30,8,9,25)         -177.0065         estimate D2E/DX2                !
 ! D77   D(9,8,19,12)           -1.9818         estimate D2E/DX2                !
 ! D78   D(9,8,19,49)          178.7644         estimate D2E/DX2                !
 ! D79   D(30,8,19,12)         178.9516         estimate D2E/DX2                !
 ! D80   D(30,8,19,49)          -0.3023         estimate D2E/DX2                !
 ! D81   D(9,8,30,2)           161.554          estimate D2E/DX2                !
 ! D82   D(9,8,30,37)          -15.5162         estimate D2E/DX2                !
 ! D83   D(19,8,30,2)          -19.5088         estimate D2E/DX2                !
 ! D84   D(19,8,30,37)         163.421          estimate D2E/DX2                !
 ! D85   D(8,9,25,12)           -3.8603         estimate D2E/DX2                !
 ! D86   D(8,9,25,26)          176.0607         estimate D2E/DX2                !
 ! D87   D(14,9,25,12)         176.6975         estimate D2E/DX2                !
 ! D88   D(14,9,25,26)          -3.3816         estimate D2E/DX2                !
 ! D89   D(17,10,11,13)        171.5661         estimate D2E/DX2                !
 ! D90   D(17,10,11,24)        -10.0876         estimate D2E/DX2                !
 ! D91   D(28,10,11,13)        -12.7037         estimate D2E/DX2                !
 ! D92   D(28,10,11,24)        165.6426         estimate D2E/DX2                !
 ! D93   D(11,10,17,1)           8.2187         estimate D2E/DX2                !
 ! D94   D(11,10,17,49)       -170.3312         estimate D2E/DX2                !
 ! D95   D(28,10,17,1)        -167.3796         estimate D2E/DX2                !
 ! D96   D(28,10,17,49)         14.0705         estimate D2E/DX2                !
 ! D97   D(11,10,28,12)       -164.7712         estimate D2E/DX2                !
 ! D98   D(11,10,28,43)         13.013          estimate D2E/DX2                !
 ! D99   D(17,10,28,12)         10.1301         estimate D2E/DX2                !
 ! D100  D(17,10,28,43)       -172.0856         estimate D2E/DX2                !
 ! D101  D(10,11,24,1)           8.2434         estimate D2E/DX2                !
 ! D102  D(10,11,24,50)       -173.6636         estimate D2E/DX2                !
 ! D103  D(13,11,24,1)        -173.3891         estimate D2E/DX2                !
 ! D104  D(13,11,24,50)          4.7039         estimate D2E/DX2                !
 ! D105  D(25,12,19,8)          -0.3307         estimate D2E/DX2                !
 ! D106  D(25,12,19,49)        178.93           estimate D2E/DX2                !
 ! D107  D(28,12,19,8)        -179.4484         estimate D2E/DX2                !
 ! D108  D(28,12,19,49)         -0.1877         estimate D2E/DX2                !
 ! D109  D(19,12,25,9)           2.7968         estimate D2E/DX2                !
 ! D110  D(19,12,25,26)       -177.1244         estimate D2E/DX2                !
 ! D111  D(28,12,25,9)        -178.0849         estimate D2E/DX2                !
 ! D112  D(28,12,25,26)          1.9939         estimate D2E/DX2                !
 ! D113  D(19,12,28,10)        -16.8096         estimate D2E/DX2                !
 ! D114  D(19,12,28,43)        165.4593         estimate D2E/DX2                !
 ! D115  D(25,12,28,10)        164.2239         estimate D2E/DX2                !
 ! D116  D(25,12,28,43)        -13.5072         estimate D2E/DX2                !
 ! D117  D(5,16,49,17)        -154.8724         estimate D2E/DX2                !
 ! D118  D(5,16,49,18)          25.1276         estimate D2E/DX2                !
 ! D119  D(7,16,49,17)          22.9214         estimate D2E/DX2                !
 ! D120  D(7,16,49,18)        -157.0786         estimate D2E/DX2                !
 ! D121  D(1,17,49,16)         -23.258          estimate D2E/DX2                !
 ! D122  D(1,17,49,19)         158.9579         estimate D2E/DX2                !
 ! D123  D(10,17,49,16)        154.9682         estimate D2E/DX2                !
 ! D124  D(10,17,49,19)        -22.8159         estimate D2E/DX2                !
 ! D125  D(2,18,49,16)         164.3895         estimate D2E/DX2                !
 ! D126  D(2,18,49,19)         -17.8264         estimate D2E/DX2                !
 ! D127  D(4,18,49,16)         -19.2239         estimate D2E/DX2                !
 ! D128  D(4,18,49,19)         158.5603         estimate D2E/DX2                !
 ! D129  D(8,19,49,17)        -164.1022         estimate D2E/DX2                !
 ! D130  D(8,19,49,18)          15.8978         estimate D2E/DX2                !
 ! D131  D(12,19,49,17)         16.7894         estimate D2E/DX2                !
 ! D132  D(12,19,49,18)       -163.2105         estimate D2E/DX2                !
 ! D133  D(1,24,50,75)         -32.7585         estimate D2E/DX2                !
 ! D134  D(1,24,50,80)         147.0945         estimate D2E/DX2                !
 ! D135  D(11,24,50,75)        149.5034         estimate D2E/DX2                !
 ! D136  D(11,24,50,80)        -30.6436         estimate D2E/DX2                !
 ! D137  D(10,28,43,44)       -100.3567         estimate D2E/DX2                !
 ! D138  D(10,28,43,45)         79.1971         estimate D2E/DX2                !
 ! D139  D(12,28,43,44)         77.3527         estimate D2E/DX2                !
 ! D140  D(12,28,43,45)       -103.0936         estimate D2E/DX2                !
 ! D141  D(4,29,31,32)         -76.1283         estimate D2E/DX2                !
 ! D142  D(4,29,31,33)         104.4119         estimate D2E/DX2                !
 ! D143  D(5,29,31,32)         102.0932         estimate D2E/DX2                !
 ! D144  D(5,29,31,33)         -77.3666         estimate D2E/DX2                !
 ! D145  D(2,30,37,38)          77.5606         estimate D2E/DX2                !
 ! D146  D(2,30,37,39)        -102.443          estimate D2E/DX2                !
 ! D147  D(8,30,37,38)        -105.4607         estimate D2E/DX2                !
 ! D148  D(8,30,37,39)          74.5356         estimate D2E/DX2                !
 ! D149  D(29,31,32,34)       -176.3988         estimate D2E/DX2                !
 ! D150  D(29,31,32,60)          1.0832         estimate D2E/DX2                !
 ! D151  D(33,31,32,34)          3.0661         estimate D2E/DX2                !
 ! D152  D(33,31,32,60)       -179.452          estimate D2E/DX2                !
 ! D153  D(29,31,33,35)       -179.018          estimate D2E/DX2                !
 ! D154  D(29,31,33,56)         -1.2303         estimate D2E/DX2                !
 ! D155  D(32,31,33,35)          1.5368         estimate D2E/DX2                !
 ! D156  D(32,31,33,56)        179.3245         estimate D2E/DX2                !
 ! D157  D(31,32,34,36)         -4.8613         estimate D2E/DX2                !
 ! D158  D(31,32,34,59)        174.591          estimate D2E/DX2                !
 ! D159  D(60,32,34,36)        177.6809         estimate D2E/DX2                !
 ! D160  D(60,32,34,59)         -2.8668         estimate D2E/DX2                !
 ! D161  D(31,33,35,36)         -4.3217         estimate D2E/DX2                !
 ! D162  D(31,33,35,57)        175.2341         estimate D2E/DX2                !
 ! D163  D(56,33,35,36)        177.8805         estimate D2E/DX2                !
 ! D164  D(56,33,35,57)         -2.5637         estimate D2E/DX2                !
 ! D165  D(32,34,36,35)          2.0618         estimate D2E/DX2                !
 ! D166  D(32,34,36,58)       -177.9443         estimate D2E/DX2                !
 ! D167  D(59,34,36,35)       -177.3874         estimate D2E/DX2                !
 ! D168  D(59,34,36,58)          2.6065         estimate D2E/DX2                !
 ! D169  D(33,35,36,34)          2.5426         estimate D2E/DX2                !
 ! D170  D(33,35,36,58)       -177.4513         estimate D2E/DX2                !
 ! D171  D(57,35,36,34)       -177.0138         estimate D2E/DX2                !
 ! D172  D(57,35,36,58)          2.9923         estimate D2E/DX2                !
 ! D173  D(30,37,38,40)        177.9227         estimate D2E/DX2                !
 ! D174  D(30,37,38,61)          0.2666         estimate D2E/DX2                !
 ! D175  D(39,37,38,40)         -2.0736         estimate D2E/DX2                !
 ! D176  D(39,37,38,61)       -179.7297         estimate D2E/DX2                !
 ! D177  D(30,37,39,41)        177.6285         estimate D2E/DX2                !
 ! D178  D(30,37,39,65)         -0.0411         estimate D2E/DX2                !
 ! D179  D(38,37,39,41)         -2.3751         estimate D2E/DX2                !
 ! D180  D(38,37,39,65)        179.9553         estimate D2E/DX2                !
 ! D181  D(37,38,40,42)          4.3869         estimate D2E/DX2                !
 ! D182  D(37,38,40,62)       -175.1401         estimate D2E/DX2                !
 ! D183  D(61,38,40,42)       -177.941          estimate D2E/DX2                !
 ! D184  D(61,38,40,62)          2.532          estimate D2E/DX2                !
 ! D185  D(37,39,41,42)          4.5283         estimate D2E/DX2                !
 ! D186  D(37,39,41,64)       -174.9638         estimate D2E/DX2                !
 ! D187  D(65,39,41,42)       -177.8135         estimate D2E/DX2                !
 ! D188  D(65,39,41,64)          2.6943         estimate D2E/DX2                !
 ! D189  D(38,40,42,41)         -2.2586         estimate D2E/DX2                !
 ! D190  D(38,40,42,63)        177.734          estimate D2E/DX2                !
 ! D191  D(62,40,42,41)        177.2703         estimate D2E/DX2                !
 ! D192  D(62,40,42,63)         -2.7371         estimate D2E/DX2                !
 ! D193  D(39,41,42,40)         -2.1988         estimate D2E/DX2                !
 ! D194  D(39,41,42,63)        177.8086         estimate D2E/DX2                !
 ! D195  D(64,41,42,40)        177.2928         estimate D2E/DX2                !
 ! D196  D(64,41,42,63)         -2.6998         estimate D2E/DX2                !
 ! D197  D(28,43,44,46)        176.7465         estimate D2E/DX2                !
 ! D198  D(28,43,44,66)         -0.7187         estimate D2E/DX2                !
 ! D199  D(45,43,44,46)         -2.8076         estimate D2E/DX2                !
 ! D200  D(45,43,44,66)        179.7272         estimate D2E/DX2                !
 ! D201  D(28,43,45,47)        178.6072         estimate D2E/DX2                !
 ! D202  D(28,43,45,70)          0.872          estimate D2E/DX2                !
 ! D203  D(44,43,45,47)         -1.8502         estimate D2E/DX2                !
 ! D204  D(44,43,45,70)       -179.5854         estimate D2E/DX2                !
 ! D205  D(43,44,46,48)          4.8014         estimate D2E/DX2                !
 ! D206  D(43,44,46,67)       -174.6608         estimate D2E/DX2                !
 ! D207  D(66,44,46,48)       -177.7539         estimate D2E/DX2                !
 ! D208  D(66,44,46,67)          2.7839         estimate D2E/DX2                !
 ! D209  D(43,45,47,48)          4.4845         estimate D2E/DX2                !
 ! D210  D(43,45,47,69)       -175.041          estimate D2E/DX2                !
 ! D211  D(70,45,47,48)       -177.774          estimate D2E/DX2                !
 ! D212  D(70,45,47,69)          2.7004         estimate D2E/DX2                !
 ! D213  D(44,46,48,47)         -2.157          estimate D2E/DX2                !
 ! D214  D(44,46,48,68)        177.8312         estimate D2E/DX2                !
 ! D215  D(67,46,48,47)        177.3024         estimate D2E/DX2                !
 ! D216  D(67,46,48,68)         -2.7094         estimate D2E/DX2                !
 ! D217  D(45,47,48,46)         -2.5052         estimate D2E/DX2                !
 ! D218  D(45,47,48,68)        177.5066         estimate D2E/DX2                !
 ! D219  D(69,47,48,46)        177.0205         estimate D2E/DX2                !
 ! D220  D(69,47,48,68)         -2.9678         estimate D2E/DX2                !
 ! D221  D(24,50,75,51)       -173.8659         estimate D2E/DX2                !
 ! D222  D(24,50,75,52)          4.6274         estimate D2E/DX2                !
 ! D223  D(80,50,75,51)          6.2691         estimate D2E/DX2                !
 ! D224  D(80,50,75,52)       -175.2377         estimate D2E/DX2                !
 ! D225  D(24,50,80,76)        171.4646         estimate D2E/DX2                !
 ! D226  D(75,50,80,76)         -8.6618         estimate D2E/DX2                !
 ! D227  D(72,51,75,50)        179.3614         estimate D2E/DX2                !
 ! D228  D(72,51,75,52)          0.8595         estimate D2E/DX2                !
 ! D229  D(76,51,75,50)          0.1811         estimate D2E/DX2                !
 ! D230  D(76,51,75,52)       -178.3208         estimate D2E/DX2                !
 ! D231  D(72,51,76,77)         -6.1335         estimate D2E/DX2                !
 ! D232  D(72,51,76,80)        174.2855         estimate D2E/DX2                !
 ! D233  D(75,51,76,77)        173.0499         estimate D2E/DX2                !
 ! D234  D(75,51,76,80)         -6.5311         estimate D2E/DX2                !
 ! D235  D(6,53,74,54)         173.674          estimate D2E/DX2                !
 ! D236  D(6,53,74,55)          -4.7972         estimate D2E/DX2                !
 ! D237  D(81,53,74,54)         -6.1123         estimate D2E/DX2                !
 ! D238  D(81,53,74,55)        175.4164         estimate D2E/DX2                !
 ! D239  D(6,53,81,78)        -171.2904         estimate D2E/DX2                !
 ! D240  D(74,53,81,78)          8.5088         estimate D2E/DX2                !
 ! D241  D(71,54,74,53)       -179.4919         estimate D2E/DX2                !
 ! D242  D(71,54,74,55)         -1.0118         estimate D2E/DX2                !
 ! D243  D(78,54,74,53)         -0.2669         estimate D2E/DX2                !
 ! D244  D(78,54,74,55)        178.2131         estimate D2E/DX2                !
 ! D245  D(71,54,78,79)          6.0814         estimate D2E/DX2                !
 ! D246  D(71,54,78,81)       -174.2744         estimate D2E/DX2                !
 ! D247  D(74,54,78,79)       -173.1464         estimate D2E/DX2                !
 ! D248  D(74,54,78,81)          6.4978         estimate D2E/DX2                !
 ! D249  D(51,76,80,50)          8.6917         estimate D2E/DX2                !
 ! D250  D(77,76,80,50)       -170.8958         estimate D2E/DX2                !
 ! D251  D(54,78,81,53)         -8.5895         estimate D2E/DX2                !
 ! D252  D(79,78,81,53)        171.0603         estimate D2E/DX2                !
 --------------------------------------------------------------------------------
 Trust Radius=3.00D-01 FncErr=1.00D-07 GrdErr=1.00D-06 EigMax=2.50D+02 EigMin=1.00D-04
 Number of steps in this run=    486 maximum allowed number of steps=    486.
 GradGradGradGradGradGradGradGradGradGradGradGradGradGradGradGradGradGrad

 Stoichiometry    C46H12F15N4NiO3(1-)
 Framework group  C1[X(C46H12F15N4NiO3)]
 Deg. of freedom   237
 Full point group                 C1      NOp   1
 Largest Abelian subgroup         C1      NOp   1
 Largest concise Abelian subgroup C1      NOp   1
                         Standard orientation:                         
 ---------------------------------------------------------------------
 Center     Atomic      Atomic             Coordinates (Angstroms)
 Number     Number       Type             X           Y           Z
 ---------------------------------------------------------------------
      1          6           0       -1.216289   -2.555240   -1.047924
      2          6           0        1.176082    2.581958   -0.251963
      3          6           0        3.431060    2.377825    0.347390
      4          6           0        2.742096    1.028025    0.247094
      5          6           0        2.663330   -1.274400    0.058342
      6          6           0        2.398106   -3.272468   -0.852398
      7          6           0        1.221190   -2.562412   -1.025349
      8          6           0       -1.183374    2.618721   -0.165265
      9          6           0       -2.533216    3.321924    0.066357
     10          6           0       -2.672436   -1.266621    0.022988
     11          6           0       -3.256348   -2.518257   -0.118648
     12          6           0       -2.749422    1.036456    0.270391
     13          1           0       -4.202248   -2.837050    0.262118
     14          1           0       -2.708296    4.373282   -0.002333
     15          1           0        4.437960    2.558070    0.659936
     16          7           0        1.319698   -1.356642   -0.460694
     17          7           0       -1.317266   -1.348211   -0.475880
     18          7           0        1.328443    1.261909   -0.129157
     19          7           0       -1.331424    1.272794   -0.070504
     20          6           0        2.525345    3.296576   -0.025758
     21          1           0        2.700086    4.345164   -0.119993
     22          6           0        3.254644   -2.518901   -0.074649
     23          1           0        4.193114   -2.835439    0.325745
     24          6           0       -2.389170   -3.271447   -0.886302
     25          6           0       -3.445541    2.387141    0.380641
     26          1           0       -4.463354    2.556298    0.656415
     27          6           0        0.009736   -3.103249   -1.700841
     28          6           0       -3.319067   -0.154837    0.467136
     29          6           0        3.308401   -0.157027    0.487959
     30          6           0        0.000742    3.270505   -0.449050
     31          6           0        4.659576   -0.288644    1.187009
     32          6           0        5.802431   -0.002960    0.451093
     33          6           0        4.755453   -0.695830    2.527168
     34          6           0        7.061093   -0.182029    1.025459
     35          6           0        6.015876   -0.782533    3.133338
     36          6           0        7.170361   -0.550988    2.372996
     37          6           0        0.011627    4.742263   -0.905481
     38          6           0        0.262212    5.075758   -2.252671
     39          6           0       -0.229336    5.750263    0.026787
     40          6           0        0.224390    6.420763   -2.656635
     41          6           0       -0.173882    7.094361   -0.361665
     42          6           0        0.029786    7.430247   -1.705704
     43          6           0       -4.685331   -0.293008    1.124485
     44          6           0       -5.813671   -0.013669    0.364025
     45          6           0       -4.802945   -0.700675    2.459675
     46          6           0       -7.082127   -0.195933    0.915078
     47          6           0       -6.072320   -0.789431    3.042724
     48          6           0       -7.213931   -0.562126    2.261475
     49         28           0        0.004714   -0.044018   -0.302635
     50          6           0       -2.684288   -4.668549   -1.410389
     51          6           0       -2.870868   -6.613466   -2.814465
     52          1           0       -1.510348   -4.763013   -3.222371
     53          6           0        2.703938   -4.667145   -1.370208
     54          6           0        2.917914   -6.606307   -2.777769
     55          1           0        1.559219   -4.758213   -3.202307
     56          9           0        3.640069   -0.960099    3.244908
     57          9           0        6.119070   -1.079207    4.447448
     58          9           0        8.388348   -0.682983    2.936857
     59          9           0        8.168477   -0.009444    0.276001
     60          9           0        5.685494    0.397208   -0.831594
     61          9           0        0.491767    4.106977   -3.166613
     62          9           0        0.365605    6.743845   -3.961210
     63          9           0        0.038487    8.726613   -2.083352
     64          9           0       -0.306916    8.067186    0.563758
     65          9           0       -0.469370    5.426056    1.313874
     66          9           0       -5.674496    0.382684   -0.918356
     67          9           0       -8.176819   -0.029172    0.145373
     68          9           0       -8.440641   -0.695336    2.804664
     69          9           0       -6.196669   -1.083466    4.355098
     70          9           0       -3.698701   -0.962410    3.194830
     71          1           0        2.722415   -7.219742   -3.630512
     72          1           0       -2.661154   -7.228263   -3.663327
     73          8           0        0.016519   -3.973413   -2.612536
     74          6           0        2.256173   -5.222641   -2.531165
     75          6           0       -2.217027   -5.226858   -2.561241
     76          6           0       -3.758599   -6.949930   -1.836877
     77          1           0       -4.398814   -7.801197   -1.856438
     78          6           0        3.791976   -6.942298   -1.787556
     79          1           0        4.433971   -7.792059   -1.798615
     80          8           0       -3.724164   -5.781028   -0.525069
     81          8           0        3.735128   -5.776536   -0.474133
 ---------------------------------------------------------------------
 Rotational constants (GHZ):           0.0289332           0.0249581           0.0165435
 General basis read from cards:  (5D, 7F)
 ======================================================================================================
                                       Pseudopotential Parameters
 ======================================================================================================
  Center     Atomic      Valence      Angular      Power
  Number     Number     Electrons     Momentum     of R      Exponent        Coefficient   SO-Coeffient
 ======================================================================================================
    1          6
                                   No pseudopotential on this center.
    2          6
                                   No pseudopotential on this center.
    3          6
                                   No pseudopotential on this center.
    4          6
                                   No pseudopotential on this center.
    5          6
                                   No pseudopotential on this center.
    6          6
                                   No pseudopotential on this center.
    7          6
                                   No pseudopotential on this center.
    8          6
                                   No pseudopotential on this center.
    9          6
                                   No pseudopotential on this center.
   10          6
                                   No pseudopotential on this center.
   11          6
                                   No pseudopotential on this center.
   12          6
                                   No pseudopotential on this center.
   13          1
                                   No pseudopotential on this center.
   14          1
                                   No pseudopotential on this center.
   15          1
                                   No pseudopotential on this center.
   16          7
                                   No pseudopotential on this center.
   17          7
                                   No pseudopotential on this center.
   18          7
                                   No pseudopotential on this center.
   19          7
                                   No pseudopotential on this center.
   20          6
                                   No pseudopotential on this center.
   21          1
                                   No pseudopotential on this center.
   22          6
                                   No pseudopotential on this center.
   23          1
                                   No pseudopotential on this center.
   24          6
                                   No pseudopotential on this center.
   25          6
                                   No pseudopotential on this center.
   26          1
                                   No pseudopotential on this center.
   27          6
                                   No pseudopotential on this center.
   28          6
                                   No pseudopotential on this center.
   29          6
                                   No pseudopotential on this center.
   30          6
                                   No pseudopotential on this center.
   31          6
                                   No pseudopotential on this center.
   32          6
                                   No pseudopotential on this center.
   33          6
                                   No pseudopotential on this center.
   34          6
                                   No pseudopotential on this center.
   35          6
                                   No pseudopotential on this center.
   36          6
                                   No pseudopotential on this center.
   37          6
                                   No pseudopotential on this center.
   38          6
                                   No pseudopotential on this center.
   39          6
                                   No pseudopotential on this center.
   40          6
                                   No pseudopotential on this center.
   41          6
                                   No pseudopotential on this center.
   42          6
                                   No pseudopotential on this center.
   43          6
                                   No pseudopotential on this center.
   44          6
                                   No pseudopotential on this center.
   45          6
                                   No pseudopotential on this center.
   46          6
                                   No pseudopotential on this center.
   47          6
                                   No pseudopotential on this center.
   48          6
                                   No pseudopotential on this center.
   49         28           18
                                      D and up 
                                                     1      469.9324331      -10.00000000    0.00000000
                                                     2       85.4236411      -69.40848050    0.00000000
                                                     2       21.2674984      -12.09510200    0.00000000
                                      S - D
                                                     0      162.1686097        3.00000000    0.00000000
                                                     1      176.5333232       22.02536180    0.00000000
                                                     2       68.9562010      443.01810880    0.00000000
                                                     2       13.5792838      145.56964110    0.00000000
                                      P - D
                                                     0       69.0181506        5.00000000    0.00000000
                                                     1      275.5955596        4.98828240    0.00000000
                                                     2       47.1315453      256.69458530    0.00000000
                                                     2       12.9874075       78.47544500    0.00000000
   50          6
                                   No pseudopotential on this center.
   51          6
                                   No pseudopotential on this center.
   52          1
                                   No pseudopotential on this center.
   53          6
                                   No pseudopotential on this center.
   54          6
                                   No pseudopotential on this center.
   55          1
                                   No pseudopotential on this center.
   56          9
                                   No pseudopotential on this center.
   57          9
                                   No pseudopotential on this center.
   58          9
                                   No pseudopotential on this center.
   59          9
                                   No pseudopotential on this center.
   60          9
                                   No pseudopotential on this center.
   61          9
                                   No pseudopotential on this center.
   62          9
                                   No pseudopotential on this center.
   63          9
                                   No pseudopotential on this center.
   64          9
                                   No pseudopotential on this center.
   65          9
                                   No pseudopotential on this center.
   66          9
                                   No pseudopotential on this center.
   67          9
                                   No pseudopotential on this center.
   68          9
                                   No pseudopotential on this center.
   69          9
                                   No pseudopotential on this center.
   70          9
                                   No pseudopotential on this center.
   71          1
                                   No pseudopotential on this center.
   72          1
                                   No pseudopotential on this center.
   73          8
                                   No pseudopotential on this center.
   74          6
                                   No pseudopotential on this center.
   75          6
                                   No pseudopotential on this center.
   76          6
                                   No pseudopotential on this center.
   77          1
                                   No pseudopotential on this center.
   78          6
                                   No pseudopotential on this center.
   79          1
                                   No pseudopotential on this center.
   80          8
                                   No pseudopotential on this center.
   81          8
                                   No pseudopotential on this center.
 ======================================================================================================
 There are  1376 symmetry adapted cartesian basis functions of A   symmetry.
 There are  1306 symmetry adapted basis functions of A   symmetry.
  1306 basis functions,  2312 primitive gaussians,  1376 cartesian basis functions
   247 alpha electrons      247 beta electrons
       nuclear repulsion energy     11095.4394406478 Hartrees.
 NAtoms=   81 NActive=   81 NUniq=   81 SFac= 1.00D+00 NAtFMM=   60 NAOKFM=T Big=T
 Integral buffers will be    131072 words long.
 Raffenetti 2 integral format.
 Two-electron integral symmetry is turned on.
 One-electron integrals computed using PRISM.
   1 Symmetry operations used in ECPInt.
 ECPInt:  NShTT=   73920 NPrTT=  400446 LenC2=   50615 LenP2D=  143331.
 LDataN:  DoStor=T MaxTD1= 4 Len=   56
 NBasis=  1306 RedAO= T EigKep=  1.29D-06  NBF=  1306
 NBsUse=  1287 1.00D-06 EigRej=  7.42D-07 NBFU=  1287
 ExpMin= 2.40D-02 ExpMax= 7.00D+03 ExpMxC= 1.05D+03 IAcc=3 IRadAn=         5 AccDes= 0.00D+00
 Harris functional with IExCor=  402 and IRadAn=       5 diagonalized for initial guess.
 HarFok:  IExCor=  402 AccDes= 0.00D+00 IRadAn=         5 IDoV= 1 UseB2=F ITyADJ=14
 ICtDFT=  3500011 ScaDFX=  1.000000  1.000000  1.000000  1.000000
 FoFCou: FMM=F IPFlag=           0 FMFlag=      100000 FMFlg1=        2001
         NFxFlg=           0 DoJE=T BraDBF=F KetDBF=T FulRan=T
         wScrn=  0.000000 ICntrl=       500 IOpCl=  0 I1Cent=   200000004 NGrid=           0
         NMat0=    1 NMatS0=      1 NMatT0=    0 NMatD0=    1 NMtDS0=    0 NMtDT0=    0
 Petite list used in FoFCou.
 Requested convergence on RMS density matrix=1.00D-08 within1000 cycles.
 Requested convergence on MAX density matrix=1.00D-06.
 Requested convergence on             energy=1.00D-06.
 No special actions if energy rises.
 EnCoef did     3 forward-backward iterations
 EnCoef did     2 forward-backward iterations
 EnCoef did     4 forward-backward iterations
 EnCoef did     2 forward-backward iterations
 Restarting incremental Fock formation.
 SCF Done:  E(RB3LYP) =  -3871.51556737     A.U. after   24 cycles
            NFock= 24  Conv=0.32D-08     -V/T= 2.0234

 **********************************************************************

            Population analysis using the SCF Density.

 **********************************************************************

 Orbital symmetries:
       Occupied  (A) (A) (A) (A) (A) (A) (A) (A) (A) (A) (A) (A)
                 (A) (A) (A) (A) (A) (A) (A) (A) (A) (A) (A) (A)
                 (A) (A) (A) (A) (A) (A) (A) (A) (A) (A) (A) (A)
                 (A) (A) (A) (A) (A) (A) (A) (A) (A) (A) (A) (A)
                 (A) (A) (A) (A) (A) (A) (A) (A) (A) (A) (A) (A)
                 (A) (A) (A) (A) (A) (A) (A) (A) (A) (A) (A) (A)
                 (A) (A) (A) (A) (A) (A) (A) (A) (A) (A) (A) (A)
                 (A) (A) (A) (A) (A) (A) (A) (A) (A) (A) (A) (A)
                 (A) (A) (A) (A) (A) (A) (A) (A) (A) (A) (A) (A)
                 (A) (A) (A) (A) (A) (A) (A) (A) (A) (A) (A) (A)
                 (A) (A) (A) (A) (A) (A) (A) (A) (A) (A) (A) (A)
                 (A) (A) (A) (A) (A) (A) (A) (A) (A) (A) (A) (A)
                 (A) (A) (A) (A) (A) (A) (A) (A) (A) (A) (A) (A)
                 (A) (A) (A) (A) (A) (A) (A) (A) (A) (A) (A) (A)
                 (A) (A) (A) (A) (A) (A) (A) (A) (A) (A) (A) (A)
                 (A) (A) (A) (A) (A) (A) (A) (A) (A) (A) (A) (A)
                 (A) (A) (A) (A) (A) (A) (A) (A) (A) (A) (A) (A)
                 (A) (A) (A) (A) (A) (A) (A) (A) (A) (A) (A) (A)
                 (A) (A) (A) (A) (A) (A) (A) (A) (A) (A) (A) (A)
                 (A) (A) (A) (A) (A) (A) (A) (A) (A) (A) (A) (A)
                 (A) (A) (A) (A) (A) (A) (A)
       Virtual   (A) (A) (A) (A) (A) (A) (A) (A) (A) (A) (A) (A)
                 (A) (A) (A) (A) (A) (A) (A) (A) (A) (A) (A) (A)
                 (A) (A) (A) (A) (A) (A) (A) (A) (A) (A) (A) (A)
                 (A) (A) (A) (A) (A) (A) (A) (A) (A) (A) (A) (A)
                 (A) (A) (A) (A) (A) (A) (A) (A) (A) (A) (A) (A)
                 (A) (A) (A) (A) (A) (A) (A) (A) (A) (A) (A) (A)
                 (A) (A) (A) (A) (A) (A) (A) (A) (A) (A) (A) (A)
                 (A) (A) (A) (A) (A) (A) (A) (A) (A) (A) (A) (A)
                 (A) (A) (A) (A) (A) (A) (A) (A) (A) (A) (A) (A)
                 (A) (A) (A) (A) (A) (A) (A) (A) (A) (A) (A) (A)
                 (A) (A) (A) (A) (A) (A) (A) (A) (A) (A) (A) (A)
                 (A) (A) (A) (A) (A) (A) (A) (A) (A) (A) (A) (A)
                 (A) (A) (A) (A) (A) (A) (A) (A) (A) (A) (A) (A)
                 (A) (A) (A) (A) (A) (A) (A) (A) (A) (A) (A) (A)
                 (A) (A) (A) (A) (A) (A) (A) (A) (A) (A) (A) (A)
                 (A) (A) (A) (A) (A) (A) (A) (A) (A) (A) (A) (A)
                 (A) (A) (A) (A) (A) (A) (A) (A) (A) (A) (A) (A)
                 (A) (A) (A) (A) (A) (A) (A) (A) (A) (A) (A) (A)
                 (A) (A) (A) (A) (A) (A) (A) (A) (A) (A) (A) (A)
                 (A) (A) (A) (A) (A) (A) (A) (A) (A) (A) (A) (A)
                 (A) (A) (A) (A) (A) (A) (A) (A) (A) (A) (A) (A)
                 (A) (A) (A) (A) (A) (A) (A) (A) (A) (A) (A) (A)
                 (A) (A) (A) (A) (A) (A) (A) (A) (A) (A) (A) (A)
                 (A) (A) (A) (A) (A) (A) (A) (A) (A) (A) (A) (A)
                 (A) (A) (A) (A) (A) (A) (A) (A) (A) (A) (A) (A)
                 (A) (A) (A) (A) (A) (A) (A) (A) (A) (A) (A) (A)
                 (A) (A) (A) (A) (A) (A) (A) (A) (A) (A) (A) (A)
                 (A) (A) (A) (A) (A) (A) (A) (A) (A) (A) (A) (A)
                 (A) (A) (A) (A) (A) (A) (A) (A) (A) (A) (A) (A)
                 (A) (A) (A) (A) (A) (A) (A) (A) (A) (A) (A) (A)
                 (A) (A) (A) (A) (A) (A) (A) (A) (A) (A) (A) (A)
                 (A) (A) (A) (A) (A) (A) (A) (A) (A) (A) (A) (A)
                 (A) (A) (A) (A) (A) (A) (A) (A) (A) (A) (A) (A)
                 (A) (A) (A) (A) (A) (A) (A) (A) (A) (A) (A) (A)
                 (A) (A) (A) (A) (A) (A) (A) (A) (A) (A) (A) (A)
                 (A) (A) (A) (A) (A) (A) (A) (A) (A) (A) (A) (A)
                 (A) (A) (A) (A) (A) (A) (A) (A) (A) (A) (A) (A)
                 (A) (A) (A) (A) (A) (A) (A) (A) (A) (A) (A) (A)
                 (A) (A) (A) (A) (A) (A) (A) (A) (A) (A) (A) (A)
                 (A) (A) (A) (A) (A) (A) (A) (A) (A) (A) (A) (A)
                 (A) (A) (A) (A) (A) (A) (A) (A) (A) (A) (A) (A)
                 (A) (A) (A) (A) (A) (A) (A) (A) (A) (A) (A) (A)
                 (A) (A) (A) (A) (A) (A) (A) (A) (A) (A) (A) (A)
                 (A) (A) (A) (A) (A) (A) (A) (A) (A) (A) (A) (A)
                 (A) (A) (A) (A) (A) (A) (A) (A) (A) (A) (A) (A)
                 (A) (A) (A) (A) (A) (A) (A) (A) (A) (A) (A) (A)
                 (A) (A) (A) (A) (A) (A) (A) (A) (A) (A) (A) (A)
                 (A) (A) (A) (A) (A) (A) (A) (A) (A) (A) (A) (A)
                 (A) (A) (A) (A) (A) (A) (A) (A) (A) (A) (A) (A)
                 (A) (A) (A) (A) (A) (A) (A) (A) (A) (A) (A) (A)
                 (A) (A) (A) (A) (A) (A) (A) (A) (A) (A) (A) (A)
                 (A) (A) (A) (A) (A) (A) (A) (A) (A) (A) (A) (A)
                 (A) (A) (A) (A) (A) (A) (A) (A) (A) (A) (A) (A)
                 (A) (A) (A) (A) (A) (A) (A) (A) (A) (A) (A) (A)
                 (A) (A) (A) (A) (A) (A) (A) (A) (A) (A) (A) (A)
                 (A) (A) (A) (A) (A) (A) (A) (A) (A) (A) (A) (A)
                 (A) (A) (A) (A) (A) (A) (A) (A) (A) (A) (A) (A)
                 (A) (A) (A) (A) (A) (A) (A) (A) (A) (A) (A) (A)
                 (A) (A) (A) (A) (A) (A) (A) (A) (A) (A) (A) (A)
                 (A) (A) (A) (A) (A) (A) (A) (A) (A) (A) (A) (A)
                 (A) (A) (A) (A) (A) (A) (A) (A) (A) (A) (A) (A)
                 (A) (A) (A) (A) (A) (A) (A) (A) (A) (A) (A) (A)
                 (A) (A) (A) (A) (A) (A) (A) (A) (A) (A) (A) (A)
                 (A) (A) (A) (A) (A) (A) (A) (A) (A) (A) (A) (A)
                 (A) (A) (A) (A) (A) (A) (A) (A) (A) (A) (A) (A)
                 (A) (A) (A) (A) (A) (A) (A) (A) (A) (A) (A) (A)
                 (A) (A) (A) (A) (A) (A) (A) (A) (A) (A) (A) (A)
                 (A) (A) (A) (A) (A) (A) (A) (A) (A) (A) (A) (A)
                 (A) (A) (A) (A) (A) (A) (A) (A) (A) (A) (A) (A)
                 (A) (A) (A) (A) (A) (A) (A) (A) (A) (A) (A) (A)
                 (A) (A) (A) (A) (A) (A) (A) (A) (A) (A) (A) (A)
                 (A) (A) (A) (A) (A) (A) (A) (A) (A) (A) (A) (A)
                 (A) (A) (A) (A) (A) (A) (A) (A) (A) (A) (A) (A)
                 (A) (A) (A) (A) (A) (A) (A) (A) (A) (A) (A) (A)
                 (A) (A) (A) (A) (A) (A) (A) (A) (A) (A) (A) (A)
                 (A) (A) (A) (A) (A) (A) (A) (A) (A) (A) (A) (A)
                 (A) (A) (A) (A) (A) (A) (A) (A) (A) (A) (A) (A)
                 (A) (A) (A) (A) (A) (A) (A) (A) (A) (A) (A) (A)
                 (A) (A) (A) (A) (A) (A) (A) (A) (A) (A) (A) (A)
                 (A) (A) (A) (A) (A) (A) (A) (A) (A) (A) (A) (A)
                 (A) (A) (A) (A) (A) (A) (A) (A) (A) (A) (A) (A)
                 (A) (A) (A) (A) (A) (A) (A) (A) (A) (A) (A) (A)
                 (A) (A) (A) (A) (A) (A) (A) (A) (A) (A) (A) (A)
                 (A) (A) (A) (A) (A) (A) (A) (A) (A) (A) (A) (A)
                 (A) (A) (A) (A) (A) (A) (A) (A) (A) (A) (A) (A)
                 (A) (A) (A) (A) (A) (A) (A) (A) (A) (A) (A) (A)
                 (A) (A) (A) (A) (A) (A) (A) (A)
 The electronic state is 1-A.
 Alpha  occ. eigenvalues --  -24.70370 -24.70100 -24.70052 -24.69799 -24.69713
 Alpha  occ. eigenvalues --  -24.69519 -24.69471 -24.69461 -24.69403 -24.68941
 Alpha  occ. eigenvalues --  -24.68739 -24.68735 -24.68684 -24.68537 -24.68470
 Alpha  occ. eigenvalues --  -19.10887 -19.10871 -19.05063 -14.28346 -14.28244
 Alpha  occ. eigenvalues --  -14.27440 -14.27394 -10.26864 -10.26675 -10.26614
 Alpha  occ. eigenvalues --  -10.26312 -10.26268 -10.26109 -10.26025 -10.26024
 Alpha  occ. eigenvalues --  -10.26002 -10.25969 -10.25881 -10.25751 -10.25749
 Alpha  occ. eigenvalues --  -10.25573 -10.25514 -10.19553 -10.18783 -10.18624
 Alpha  occ. eigenvalues --  -10.18471 -10.17590 -10.17565 -10.17307 -10.17306
 Alpha  occ. eigenvalues --  -10.16758 -10.16624 -10.15989 -10.15910 -10.14338
 Alpha  occ. eigenvalues --  -10.14217 -10.13804 -10.13768 -10.13700 -10.13697
 Alpha  occ. eigenvalues --  -10.13407 -10.13220 -10.13190 -10.13073 -10.13069
 Alpha  occ. eigenvalues --  -10.12819 -10.12759 -10.11702 -10.11686 -10.10963
 Alpha  occ. eigenvalues --  -10.10959 -10.09762 -10.09757  -3.95869  -2.57659
 Alpha  occ. eigenvalues --   -2.57562  -2.51981  -1.22095  -1.21862  -1.21822
 Alpha  occ. eigenvalues --   -1.21134  -1.20895  -1.20839  -1.20540  -1.20317
 Alpha  occ. eigenvalues --   -1.20271  -1.19721  -1.19509  -1.19433  -1.19396
 Alpha  occ. eigenvalues --   -1.19156  -1.19107  -0.94452  -0.89427  -0.88373
 Alpha  occ. eigenvalues --   -0.88103  -0.86397  -0.85724  -0.85615  -0.85545
 Alpha  occ. eigenvalues --   -0.84726  -0.84689  -0.78313  -0.77387  -0.76013
 Alpha  occ. eigenvalues --   -0.73647  -0.73622  -0.73590  -0.72599  -0.72011
 Alpha  occ. eigenvalues --   -0.71778  -0.71355  -0.71296  -0.70425  -0.70367
 Alpha  occ. eigenvalues --   -0.69733  -0.69301  -0.66330  -0.65678  -0.63749
 Alpha  occ. eigenvalues --   -0.62602  -0.62401  -0.62355  -0.61849  -0.61712
 Alpha  occ. eigenvalues --   -0.61657  -0.61123  -0.58017  -0.57983  -0.55191
 Alpha  occ. eigenvalues --   -0.54985  -0.54919  -0.54298  -0.54216  -0.54187
 Alpha  occ. eigenvalues --   -0.53553  -0.53381  -0.53260  -0.53030  -0.51833
 Alpha  occ. eigenvalues --   -0.51630  -0.50965  -0.50323  -0.50161  -0.50112
 Alpha  occ. eigenvalues --   -0.50054  -0.49743  -0.49608  -0.49430  -0.49059
 Alpha  occ. eigenvalues --   -0.48355  -0.47888  -0.47811  -0.47779  -0.47638
 Alpha  occ. eigenvalues --   -0.47438  -0.47229  -0.47125  -0.47080  -0.46354
 Alpha  occ. eigenvalues --   -0.46230  -0.45489  -0.44952  -0.44736  -0.44682
 Alpha  occ. eigenvalues --   -0.44333  -0.44207  -0.43783  -0.43527  -0.43464
 Alpha  occ. eigenvalues --   -0.42920  -0.42864  -0.42215  -0.42001  -0.41961
 Alpha  occ. eigenvalues --   -0.41886  -0.41742  -0.41685  -0.40412  -0.40002
 Alpha  occ. eigenvalues --   -0.39868  -0.39748  -0.39707  -0.39635  -0.39457
 Alpha  occ. eigenvalues --   -0.39041  -0.38758  -0.38508  -0.38381  -0.37632
 Alpha  occ. eigenvalues --   -0.37259  -0.37061  -0.37057  -0.37005  -0.36315
 Alpha  occ. eigenvalues --   -0.35762  -0.35391  -0.35226  -0.35055  -0.34558
 Alpha  occ. eigenvalues --   -0.34526  -0.34296  -0.34168  -0.34100  -0.33879
 Alpha  occ. eigenvalues --   -0.33290  -0.33048  -0.32364  -0.32317  -0.31971
 Alpha  occ. eigenvalues --   -0.31564  -0.31199  -0.31048  -0.30924  -0.30484
 Alpha  occ. eigenvalues --   -0.30460  -0.29741  -0.29580  -0.29170  -0.28606
 Alpha  occ. eigenvalues --   -0.28539  -0.27990  -0.27356  -0.27297  -0.25911
 Alpha  occ. eigenvalues --   -0.25857  -0.25132  -0.24923  -0.24709  -0.23453
 Alpha  occ. eigenvalues --   -0.23231  -0.22376  -0.22071  -0.21943  -0.21827
 Alpha  occ. eigenvalues --   -0.21601  -0.21468  -0.21426  -0.21392  -0.20070
 Alpha  occ. eigenvalues --   -0.18878  -0.18816  -0.18562  -0.18367  -0.17185
 Alpha  occ. eigenvalues --   -0.16538  -0.16467  -0.16333  -0.14131  -0.13034
 Alpha  occ. eigenvalues --   -0.11172  -0.10834
[...]
 Alpha virt. eigenvalues --    0.80415   0.80867   0.81260   0.81359   0.81473
 Alpha virt. eigenvalues --    0.82028   0.83268   0.83446   0.83939   0.84437
 Alpha virt. eigenvalues --    0.84536   0.85089   0.85773   0.85985   0.86729
 Alpha virt. eigenvalues --    0.86803   0.86933   0.87135   0.87774   0.88057
 Alpha virt. eigenvalues --    0.88177   0.88536   0.88642   0.89168   0.89347
 Alpha virt. eigenvalues --    0.89552   0.89744   0.89970   0.90213   0.90557
 Alpha virt. eigenvalues --    0.90644   0.91017   0.91360   0.92035   0.92073
 Alpha virt. eigenvalues --    0.92339   0.92861   0.93436   0.93701   0.93890
 Alpha virt. eigenvalues --    0.94244   0.94951   0.95163   0.95504   0.95732
 Alpha virt. eigenvalues --    0.95961   0.96089   0.96357   0.96612   0.96990
 Alpha virt. eigenvalues --    0.97498   0.98013   0.98318   0.98398   0.98731
 Alpha virt. eigenvalues --    0.98767   0.99218   0.99286   0.99643   1.00280
 Alpha virt. eigenvalues --    1.00483   1.00500   1.01008   1.01199   1.01345
 Alpha virt. eigenvalues --    1.01617   1.01772   1.01825   1.02093   1.02436
 Alpha virt. eigenvalues --    1.02714   1.02851   1.03180   1.03556   1.04164
 Alpha virt. eigenvalues --    1.04451   1.04955   1.05356   1.05792   1.06415
 Alpha virt. eigenvalues --    1.06777   1.06984   1.07993   1.08363   1.08475
 Alpha virt. eigenvalues --    1.09960   1.10270   1.10363   1.11224   1.11423
 Alpha virt. eigenvalues --    1.11946   1.13556   1.14726   1.15157   1.16074
 Alpha virt. eigenvalues --    1.16571   1.16832   1.17256   1.17540   1.18117
 Alpha virt. eigenvalues --    1.18229   1.18958   1.19212   1.19576   1.19881
 Alpha virt. eigenvalues --    1.20480   1.20613   1.21066   1.21183   1.21611
 Alpha virt. eigenvalues --    1.22013   1.22180   1.22575   1.22748   1.22893
 Alpha virt. eigenvalues --    1.23342   1.23513   1.23545   1.24098   1.24204
 Alpha virt. eigenvalues --    1.24444   1.24886   1.25222   1.25831   1.25943
 Alpha virt. eigenvalues --    1.26049   1.26304   1.27209   1.27741   1.28182
 Alpha virt. eigenvalues --    1.28383   1.28565   1.29073   1.29178   1.29564
 Alpha virt. eigenvalues --    1.29710   1.29849   1.29978   1.30607   1.30716
 Alpha virt. eigenvalues --    1.31016   1.31679   1.31857   1.32141   1.32434
 Alpha virt. eigenvalues --    1.32692   1.33710   1.33953   1.34157   1.34257
 Alpha virt. eigenvalues --    1.34466   1.34576   1.34872   1.35482   1.35560
 Alpha virt. eigenvalues --    1.36189   1.36366   1.36513   1.36662   1.36873
 Alpha virt. eigenvalues --    1.37120   1.37342   1.37661   1.37750   1.37954
 Alpha virt. eigenvalues --    1.38798   1.38906   1.39002   1.39336   1.39511
 Alpha virt. eigenvalues --    1.39929   1.40213   1.40397   1.40595   1.40911
 Alpha virt. eigenvalues --    1.41558   1.41704   1.41821   1.42403   1.42979
 Alpha virt. eigenvalues --    1.43492   1.43974   1.44523   1.44666   1.44818
 Alpha virt. eigenvalues --    1.45062   1.45185   1.45610   1.46110   1.46668
 Alpha virt. eigenvalues --    1.46764   1.47342   1.47723   1.48116   1.48752
 Alpha virt. eigenvalues --    1.49247   1.49507   1.49738   1.50178   1.50882
 Alpha virt. eigenvalues --    1.50960   1.51372   1.51574   1.51914   1.52121
 Alpha virt. eigenvalues --    1.52665   1.53409   1.53965   1.54449   1.54533
 Alpha virt. eigenvalues --    1.55556   1.55782   1.55987   1.56801   1.57032
 Alpha virt. eigenvalues --    1.58143   1.58527   1.59235   1.59532   1.60097
 Alpha virt. eigenvalues --    1.60630   1.61369   1.61824   1.61931   1.62483
 Alpha virt. eigenvalues --    1.62782   1.63638   1.64630   1.65380   1.65463
 Alpha virt. eigenvalues --    1.65696   1.66162   1.66312   1.66468   1.66586
 Alpha virt. eigenvalues --    1.66851   1.67020   1.67152   1.67420   1.67789
 Alpha virt. eigenvalues --    1.67847   1.68411   1.68555   1.68760   1.68917
 Alpha virt. eigenvalues --    1.69071   1.69692   1.70127   1.70491   1.70513
 Alpha virt. eigenvalues --    1.71390   1.71789   1.71960   1.72109   1.72284
 Alpha virt. eigenvalues --    1.72629   1.73035   1.73186   1.73481   1.73644
 Alpha virt. eigenvalues --    1.73829   1.73965   1.74477   1.74925   1.75171
 Alpha virt. eigenvalues --    1.75669   1.75982   1.76212   1.76461   1.76687
 Alpha virt. eigenvalues --    1.76775   1.77011   1.77186   1.77819   1.77855
 Alpha virt. eigenvalues --    1.78044   1.78351   1.78484   1.78820   1.79178
 Alpha virt. eigenvalues --    1.79313   1.79459   1.79801   1.80305   1.80463
 Alpha virt. eigenvalues --    1.80803   1.81185   1.81683   1.81944   1.82048
 Alpha virt. eigenvalues --    1.82160   1.82388   1.82773   1.83003   1.83365
 Alpha virt. eigenvalues --    1.83631   1.83859   1.84002   1.84102   1.84216
 Alpha virt. eigenvalues --    1.84398   1.84602   1.84717   1.84824   1.85199
 Alpha virt. eigenvalues --    1.85593   1.85616   1.86084   1.86179   1.86276
 Alpha virt. eigenvalues --    1.86448   1.86760   1.86845   1.87095   1.87256
 Alpha virt. eigenvalues --    1.87479   1.87948   1.88013   1.88185   1.88601
 Alpha virt. eigenvalues --    1.88923   1.89000   1.89367   1.89408   1.89646
 Alpha virt. eigenvalues --    1.89763   1.90435   1.90598   1.90970   1.91183
 Alpha virt. eigenvalues --    1.91535   1.91709   1.92135   1.92181   1.92428
 Alpha virt. eigenvalues --    1.92526   1.92726   1.92982   1.93446   1.93670
 Alpha virt. eigenvalues --    1.93823   1.93902   1.94024   1.94374   1.94479
 Alpha virt. eigenvalues --    1.94814   1.95053   1.95127   1.95399   1.95539
 Alpha virt. eigenvalues --    1.95643   1.96820   1.97000   1.97245   1.97456
 Alpha virt. eigenvalues --    1.97783   1.98153   1.98404   1.98881   1.99380
 Alpha virt. eigenvalues --    1.99482   1.99717   2.00089   2.00592   2.00685
 Alpha virt. eigenvalues --    2.01470   2.01982   2.02464   2.02754   2.03352
 Alpha virt. eigenvalues --    2.04000   2.04379   2.04785   2.05692   2.05919
 Alpha virt. eigenvalues --    2.06204   2.06561   2.06841   2.07196   2.07509
 Alpha virt. eigenvalues --    2.07631   2.08115   2.08682   2.08855   2.09256
 Alpha virt. eigenvalues --    2.09571   2.09795   2.09858   2.10273   2.10562
 Alpha virt. eigenvalues --    2.11283   2.11475   2.11693   2.12615   2.13498
 Alpha virt. eigenvalues --    2.14204   2.14485   2.14812   2.15850   2.15986
 Alpha virt. eigenvalues --    2.16252   2.17037   2.17288   2.17445   2.18995
 Alpha virt. eigenvalues --    2.19046   2.19624   2.20041   2.20655   2.20895
 Alpha virt. eigenvalues --    2.21083   2.21606   2.21832   2.22297   2.22699
 Alpha virt. eigenvalues --    2.22850   2.23162   2.23734   2.24279   2.25778
 Alpha virt. eigenvalues --    2.26586   2.26865   2.27098   2.27235   2.27399
 Alpha virt. eigenvalues --    2.27804   2.27883   2.28267   2.28365   2.28491
 Alpha virt. eigenvalues --    2.28613   2.28945   2.29406   2.29548   2.29742
 Alpha virt. eigenvalues --    2.29993   2.30014   2.30148   2.30406   2.30590
 Alpha virt. eigenvalues --    2.32609   2.32687   2.33101   2.33227   2.34017
 Alpha virt. eigenvalues --    2.34294   2.34540   2.35821   2.35907   2.36114
 Alpha virt. eigenvalues --    2.36401   2.36586   2.36979   2.37507   2.38227
 Alpha virt. eigenvalues --    2.38492   2.38627   2.38876   2.39001   2.39125
 Alpha virt. eigenvalues --    2.39237   2.39641   2.39929   2.40020   2.40966
 Alpha virt. eigenvalues --    2.41285   2.41410   2.41672   2.42142   2.42735
 Alpha virt. eigenvalues --    2.42927   2.43617   2.43695   2.44025   2.44422
 Alpha virt. eigenvalues --    2.44918   2.45212   2.46064   2.46141   2.46707
 Alpha virt. eigenvalues --    2.46917   2.47045   2.47136   2.47303   2.47929
 Alpha virt. eigenvalues --    2.48030   2.48247   2.48695   2.49526   2.49861
 Alpha virt. eigenvalues --    2.50403   2.51163   2.51919   2.52628   2.54680
 Alpha virt. eigenvalues --    2.55215   2.56083   2.56699   2.56924   2.57533
 Alpha virt. eigenvalues --    2.57707   2.58114   2.58546   2.58776   2.59256
 Alpha virt. eigenvalues --    2.59323   2.59818   2.60095   2.60162   2.60474
 Alpha virt. eigenvalues --    2.60538   2.60671   2.61267   2.61660   2.62169
 Alpha virt. eigenvalues --    2.62445   2.62677   2.63262   2.63397   2.63789
 Alpha virt. eigenvalues --    2.64259   2.64712   2.65219   2.65528   2.65801
 Alpha virt. eigenvalues --    2.65975   2.66211   2.67131   2.67205   2.67409
 Alpha virt. eigenvalues --    2.67818   2.68257   2.68721   2.68990   2.70247
 Alpha virt. eigenvalues --    2.70917   2.71224   2.71811   2.72285   2.72953
 Alpha virt. eigenvalues --    2.73262   2.73792   2.73844   2.74969   2.76945
 Alpha virt. eigenvalues --    2.77529   2.78128   2.78204   2.78700   2.78938
 Alpha virt. eigenvalues --    2.79581   2.80307   2.80807   2.81334   2.82040
 Alpha virt. eigenvalues --    2.82216   2.83036   2.83456   2.83697   2.84314
 Alpha virt. eigenvalues --    2.85021   2.85854   2.87544   2.87803   2.90478
 Alpha virt. eigenvalues --    2.90763   2.91505   2.91816   2.93510   2.94339
 Alpha virt. eigenvalues --    2.95161   2.96002   2.96809   2.98098   2.98520
 Alpha virt. eigenvalues --    2.99201   3.00323   3.00822   3.01283   3.02705
 Alpha virt. eigenvalues --    3.05106   3.05978   3.06082   3.06407   3.06634
 Alpha virt. eigenvalues --    3.07169   3.07695   3.10879   3.11210   3.11600
 Alpha virt. eigenvalues --    3.12166   3.12519   3.12626   3.13314   3.13608
 Alpha virt. eigenvalues --    3.13944   3.14528   3.16128   3.16748   3.18988
 Alpha virt. eigenvalues --    3.20584   3.21455   3.21830   3.22249   3.22576
 Alpha virt. eigenvalues --    3.22684   3.23338   3.23446   3.23653   3.25731
 Alpha virt. eigenvalues --    3.26787   3.28008   3.28724   3.29523   3.30161
 Alpha virt. eigenvalues --    3.30243   3.31449   3.31861   3.32486   3.33220
 Alpha virt. eigenvalues --    3.36326   3.36696   3.39075   3.39478   3.40427
 Alpha virt. eigenvalues --    3.40685   3.40858   3.41766   3.42612   3.43010
 Alpha virt. eigenvalues --    3.44881   3.46976   3.47374   3.47535   3.48000
 Alpha virt. eigenvalues --    3.51381   3.53023   3.55459   3.60747   3.61713
 Alpha virt. eigenvalues --    3.73082   3.73449   3.73632   3.74344   3.75702
 Alpha virt. eigenvalues --    3.86917   3.88572   3.95377   3.96226  48.99537
          Condensed to atoms (all electrons):
 Mulliken charges:
               1
     1  C    0.009193
     2  C    0.164545
     3  C   -0.040968
     4  C    0.265691
     5  C   -0.044191
     6  C   -0.037167
     7  C   -0.009204
     8  C    0.172104
     9  C   -0.166747
    10  C   -0.061819
    11  C   -0.413372
    12  C    0.289075
    13  H    0.127060
    14  H    0.114838
    15  H    0.116830
    16  N    0.539452
    17  N    0.534179
    18  N    0.327422
    19  N    0.331127
    20  C   -0.164226
    21  H    0.114379
    22  C   -0.403787
    23  H    0.126891
    24  C   -0.046546
    25  C   -0.036382
    26  H    0.116912
    27  C    0.117975
    28  C    0.268464
    29  C    0.265544
    30  C    0.009606
    31  C   -0.795499
    32  C    0.165431
    33  C    0.296090
    34  C    0.235349
    35  C    0.293896
    36  C    0.522909
    37  C   -0.637909
    38  C    0.176247
    39  C   -0.003302
    40  C    0.328568
    41  C    0.299979
    42  C    0.485853
    43  C   -0.777192
    44  C    0.167487
    45  C    0.277224
    46  C    0.232070
    47  C    0.295453
    48  C    0.521794
    49  Ni  -0.494103
    50  C    0.103626
    51  C   -0.350014
    52  H    0.169808
    53  C    0.104354
    54  C   -0.347237
    55  H    0.169706
    56  F   -0.280002
    57  F   -0.353828
    58  F   -0.351711
    59  F   -0.351202
    60  F   -0.272986
    61  F   -0.277776
    62  F   -0.355928
    63  F   -0.351829
    64  F   -0.354006
    65  F   -0.277393
    66  F   -0.271689
    67  F   -0.351052
    68  F   -0.351684
    69  F   -0.353832
    70  F   -0.280169
    71  H    0.122740
    72  H    0.122722
    73  O   -0.566352
    74  C    0.063104
    75  C    0.069345
    76  C    0.150347
    77  H    0.124150
    78  C    0.148926
    79  H    0.124178
    80  O   -0.275665
    81  O   -0.275868
 Sum of Mulliken charges =  -1.00000
 Mulliken charges with hydrogens summed into heavy atoms:
               1
     1  C    0.009193
     2  C    0.164545
     3  C    0.075862
     4  C    0.265691
     5  C   -0.044191
     6  C   -0.037167
     7  C   -0.009204
     8  C    0.172104
     9  C   -0.051909
    10  C   -0.061819
    11  C   -0.286313
    12  C    0.289075
    16  N    0.539452
    17  N    0.534179
    18  N    0.327422
    19  N    0.331127
    20  C   -0.049848
    22  C   -0.276897
    24  C   -0.046546
    25  C    0.080530
    27  C    0.117975
    28  C    0.268464
    29  C    0.265544
    30  C    0.009606
    31  C   -0.795499
    32  C    0.165431
    33  C    0.296090
    34  C    0.235349
    35  C    0.293896
    36  C    0.522909
    37  C   -0.637909
    38  C    0.176247
    39  C   -0.003302
    40  C    0.328568
    41  C    0.299979
    42  C    0.485853
    43  C   -0.777192
    44  C    0.167487
    45  C    0.277224
    46  C    0.232070
    47  C    0.295453
    48  C    0.521794
    49  Ni  -0.494103
    50  C    0.103626
    51  C   -0.227292
    53  C    0.104354
    54  C   -0.224497
    56  F   -0.280002
    57  F   -0.353828
    58  F   -0.351711
    59  F   -0.351202
    60  F   -0.272986
    61  F   -0.277776
    62  F   -0.355928
    63  F   -0.351829
    64  F   -0.354006
    65  F   -0.277393
    66  F   -0.271689
    67  F   -0.351052
    68  F   -0.351684
    69  F   -0.353832
    70  F   -0.280169
    73  O   -0.566352
    74  C    0.232810
    75  C    0.239153
    76  C    0.274496
    78  C    0.273104
    80  O   -0.275665
    81  O   -0.275868
 Electronic spatial extent (au):  <R**2>=          62055.2499
 Charge=             -1.0000 electrons
 Dipole moment (field-independent basis, Debye):
    X=              0.0243    Y=              3.6362    Z=              1.7527  Tot=              4.0366
 Quadrupole moment (field-independent basis, Debye-Ang):
   XX=           -468.5846   YY=           -455.7030   ZZ=           -431.4802
   XY=             -0.0189   XZ=              1.5730   YZ=             -1.7621
 Traceless Quadrupole moment (field-independent basis, Debye-Ang):
   XX=            -16.6620   YY=             -3.7804   ZZ=             20.4424
   XY=             -0.0189   XZ=              1.5730   YZ=             -1.7621
 Octapole moment (field-independent basis, Debye-Ang**2):
  XXX=              6.4318  YYY=           -117.4598  ZZZ=             24.0676  XYY=             -1.8149
  XXY=            117.4602  XXZ=            -49.0480  XZZ=             -3.9371  YZZ=             33.4340
  YYZ=             77.5334  XYZ=             14.3428
 Hexadecapole moment (field-independent basis, Debye-Ang**3):
 XXXX=         -44731.6310 YYYY=         -36806.9256 ZZZZ=          -6118.2301 XXXY=             48.9293
 XXXZ=            -39.7316 YYYX=            -31.9596 YYYZ=            168.0667 ZZZX=            -10.4182
 ZZZY=           -155.8553 XXYY=         -11597.9623 XXZZ=          -8324.5424 YYZZ=          -7090.7379
 XXYZ=            -76.5894 YYXZ=             76.9374 ZZXY=            -21.2676
 N-N= 1.112091596352D+04 E-N=-3.138134489612D+04  KE= 3.785394824698D+03
 Unable to Open any file for archive entry.
 1\1\GINC-CCNN553\FOpt\RB3LYP\GenECP\C46H12F15N4Ni1O3(1-)\CPI\20-Nov-20
 21\0\\# opt b3lyp/genecp geom=connectivity scf=maxcyc=1000\\title\\-1,
 1\C,-1.2721937055,-2.481437997,-0.9930512336\C,1.2523070566,2.84918129
 16,-0.2586232221\C,3.4111952247,2.5284174355,0.311986648\C,2.709509568
 7,1.2714392204,0.2361172379\C,2.6526896148,-1.1753052282,-0.0068356028
 \C,2.4261771393,-3.2657536331,-0.8434719496\C,1.2084728048,-2.50904756
 64,-0.9941026629\C,-1.1942781529,2.881252319,-0.2594061186\C,-2.456512
 3373,3.5584665986,-0.0656853672\C,-2.6879992624,-1.1130101024,-0.01211
 57682\C,-3.3687761477,-2.3415258537,-0.1854066352\C,-2.6903110228,1.33
 5596899,0.2225661341\H,-4.3915227875,-2.5476554351,0.0916813323\H,-2.6
 139029322,4.624906065,-0.1452654375\H,4.4545074381,2.6478390084,0.5694
 895555\N,1.3531849487,-1.2555253887,-0.4677363552\N,-1.3898220343,-1.2
 233732986,-0.4704339194\N,1.3863803965,1.4933704648,-0.112849455\N,-1.
 3586206643,1.5281038984,-0.1099179277\C,2.5238314667,3.5004924946,-0.0
 38647917\H,2.6996866523,4.5653675425,-0.1019087034\C,3.3066616985,-2.4
 178261205,-0.1836935195\H,4.3244460825,-2.647045556,0.0935525361\C,-2.
 5061912547,-3.2108200849,-0.8410790684\C,-3.3673399589,2.6071189611,0.
 2802575173\H,-4.4119359011,2.7491830318,0.5203798918\C,-0.0378918381,-
 3.0144404438,-1.5431767052\C,-3.2989133177,0.1001170314,0.3647832494\C
 ,3.2890893799,0.0220148882,0.3782494041\C,0.0374846323,3.5245733646,-0
 .4279168505\C,4.7086790735,-0.0633341447,0.8393323264\C,5.7891952624,0
 .0621006424,-0.0413121251\C,5.0229956726,-0.2918763402,2.1838698601\C,
 7.1131522075,-0.0287665893,0.3854469883\C,6.3379360254,-0.3884996352,2
 .6364176202\C,7.3873950678,-0.2556459222,1.7313961993\C,0.0652182705,5
 .0025163573,-0.6309730893\C,0.2824937903,5.5596128971,-1.8983417351\C,
 -0.1104335202,5.912018578,0.4204212756\C,0.3211086629,6.9361236433,-2.
 1158922065\C,-0.0807375876,7.292622278,0.2303775175\C,0.1365608586,7.8
 064820125,-1.0451959691\C,-4.7234326291,0.049294564,0.8159840559\C,-5.
 7946436454,0.1826918682,-0.0747654239\C,-5.0522362313,-0.1527698532,2.
 1612654559\C,-7.1232815205,0.1242279825,0.3429553191\C,-6.3721914872,-
 0.2168967917,2.6049713368\C,-7.4120183364,-0.077144578,1.6899410613\Ni
 ,-0.0024598043,0.1391707433,-0.30637911\C,-2.8790259352,-4.5688389899,
 -1.1940226583\C,-3.3292571387,-6.6629285184,-1.9035981635\H,-1.5388462
 692,-5.484925567,-2.6377117861\C,2.769763317,-4.6302753591,-1.20090374
 06\C,3.1757481716,-6.7306717746,-1.9184797592\H,1.4122380368,-5.511311
 3726,-2.6501684434\F,4.0424788079,-0.4225814035,3.0918834647\F,6.60254
 69561,-0.6039661452,3.9371627079\F,8.6589196937,-0.3438500737,2.155102
 1086\F,8.1270128129,0.1012828217,-0.4887331013\F,5.5723819485,0.279524
 6499,-1.3488091021\F,0.4589590007,4.7608242389,-2.963360137\F,0.528986
 2584,7.4317730818,-3.3488452983\F,0.1691302848,9.1350160702,-1.2411919
 313\F,-0.2527803474,8.133173569,1.2669186912\F,-0.3085648855,5.4655927
 979,1.6725234079\F,-5.5638240402,0.3771572964,-1.383539779\F,-8.127814
 0052,0.2614193949,-0.5408916652\F,-8.6881879138,-0.1340977516,2.104963
 0071\F,-6.6507236198,-0.4079935493,3.9066085598\F,-4.0813150512,-0.289
 4619939,3.0786376008\H,3.0999478729,-7.6790389773,-2.4326022148\H,-3.2
 732200858,-7.6148210177,-2.4137255795\O,-0.0486199791,-3.9443736548,-2
 .3760342259\C,2.2901114854,-5.6120114331,-2.0354838187\C,-2.4194724121
 ,-5.5641564888,-2.0238129033\C,-4.2901977495,-6.2729902123,-1.01806386
 28\H,-5.1703373389,-6.7474732132,-0.6112528283\C,4.1434737916,-6.36524
 55146,-1.0298813515\H,5.0124463092,-6.8603606643,-0.6236508969\O,-4.03
 88031603,-5.0097396598,-0.5763430343\O,3.9187497579,-5.0986882645,-0.5
 833019618\\Version=ES64L-G16RevC.01\State=1-A\HF=-3871.8560686\RMSD=5.
 251e-09\RMSF=6.214e-06\Dipole=0.016451,1.4110936,0.7284821\Quadrupole=
 -12.3803955,-2.7250699,15.1054654,-0.0202164,1.2492859,-1.8054262\PG=C
 01 [X(C46H12F15N4Ni1O3)]\\@
 The archive entry for this job was punched.


 THE TEST OF A FIRST RATE INTELLIGENCE IS THE ABILITY TO HOLD TWO OPPOSED
 IDEAS IN THE MIND AT THE SAME TIME, AND STILL RETAIN THE ABILITY TO FUNCTION.
 ONE SHOULD, FOR EXAMPLE, BE ABLE TO SEE THAT THINGS ARE HOPELESS AND YET BE
 DETERMINED TO MAKE THEM OTHERWISE.

                                                       -- F. SCOTT FITZGERALD
 Job cpu time:       5 days 14 hours 24 minutes 30.9 seconds.
 Elapsed time:       0 days  8 hours 24 minutes 37.8 seconds.
 File lengths (MBytes):  RWF=   1047 Int=      0 D2E=      0 Chk=    156 Scr=      1
 Normal termination of Gaussian 16 at Sat Nov 20 09:02:04 2021.
