 Entering Gaussian System, Link 0=/local/apl/lx/g16c01/g16/._.g16
 Initial command:
 /local/apl/lx/g16c01/g16/l1.exe "/work/users/cpi/4884914.cccms1/Gau-63233.inp" -scrdir="/work/users/cpi/4884914.cccms1/"
 Default CPUs for threads: 0,1,2,3,4,5,6,7,8,9,10,11,12,13,14,15,16,17
 Default is to use a total of  18 processors:
                               18 via shared-memory
                                1 via Linda
 Entering Link 1 = /local/apl/lx/g16c01/g16/l1.exe PID=     63234.
  
 Copyright (c) 1988-2019, Gaussian, Inc.  All Rights Reserved.
  
 This is part of the Gaussian(R) 16 program.  It is based on
 the Gaussian(R) 09 system (copyright 2009, Gaussian, Inc.),
 the Gaussian(R) 03 system (copyright 2003, Gaussian, Inc.),
 the Gaussian(R) 98 system (copyright 1998, Gaussian, Inc.),
 the Gaussian(R) 94 system (copyright 1995, Gaussian, Inc.),
 the Gaussian 92(TM) system (copyright 1992, Gaussian, Inc.),
 the Gaussian 90(TM) system (copyright 1990, Gaussian, Inc.),
 the Gaussian 88(TM) system (copyright 1988, Gaussian, Inc.),
 the Gaussian 86(TM) system (copyright 1986, Carnegie Mellon
 University), and the Gaussian 82(TM) system (copyright 1983,
 Carnegie Mellon University). Gaussian is a federally registered
 trademark of Gaussian, Inc.
  
 This software contains proprietary and confidential information,
 including trade secrets, belonging to Gaussian, Inc.
  
 This software is provided under written license and may be
 used, copied, transmitted, or stored only in accord with that
 written license.
  
 The following legend is applicable only to US Government
 contracts under FAR:
  
                    RESTRICTED RIGHTS LEGEND
  
 Use, reproduction and disclosure by the US Government is
 subject to restrictions as set forth in subparagraphs (a)
 and (c) of the Commercial Computer Software - Restricted
 Rights clause in FAR 52.227-19.
  
 Gaussian, Inc.
 340 Quinnipiac St., Bldg. 40, Wallingford CT 06492
  
  
 ---------------------------------------------------------------
 Warning -- This program may not be used in any manner that
 competes with the business of Gaussian, Inc. or will provide
 assistance to any competitor of Gaussian, Inc.  The licensee
 of this program is prohibited from giving any competitor of
 Gaussian, Inc. access to this program.  By using this program,
 the user acknowledges that Gaussian, Inc. is engaged in the
 business of creating and licensing software in the field of
 computational chemistry and represents and warrants to the
 licensee that it is not a competitor of Gaussian, Inc. and that
 it will not use this program in any manner prohibited above.
 ---------------------------------------------------------------
  

 Cite this work as:
 Gaussian 16, Revision C.01,
 M. J. Frisch, G. W. Trucks, H. B. Schlegel, G. E. Scuseria, 
 M. A. Robb, J. R. Cheeseman, G. Scalmani, V. Barone, 
 G. A. Petersson, H. Nakatsuji, X. Li, M. Caricato, A. V. Marenich, 
 J. Bloino, B. G. Janesko, R. Gomperts, B. Mennucci, H. P. Hratchian, 
 J. V. Ortiz, A. F. Izmaylov, J. L. Sonnenberg, D. Williams-Young, 
 F. Ding, F. Lipparini, F. Egidi, J. Goings, B. Peng, A. Petrone, 
 T. Henderson, D. Ranasinghe, V. G. Zakrzewski, J. Gao, N. Rega, 
 G. Zheng, W. Liang, M. Hada, M. Ehara, K. Toyota, R. Fukuda, 
 J. Hasegawa, M. Ishida, T. Nakajima, Y. Honda, O. Kitao, H. Nakai, 
 T. Vreven, K. Throssell, J. A. Montgomery, Jr., J. E. Peralta, 
 F. Ogliaro, M. J. Bearpark, J. J. Heyd, E. N. Brothers, K. N. Kudin, 
 V. N. Staroverov, T. A. Keith, R. Kobayashi, J. Normand, 
 K. Raghavachari, A. P. Rendell, J. C. Burant, S. S. Iyengar, 
 J. Tomasi, M. Cossi, J. M. Millam, M. Klene, C. Adamo, R. Cammi, 
 J. W. Ochterski, R. L. Martin, K. Morokuma, O. Farkas, 
 J. B. Foresman, and D. J. Fox, Gaussian, Inc., Wallingford CT, 2019.
 
 ******************************************
 Gaussian 16:  ES64L-G16RevC.01  3-Jul-2019
                25-Oct-2021 
 ******************************************
 %mem=100GB
 %nprocshare=16
 Will use up to   16 processors via shared memory.
 %chk=Ni_3C6F5_Por_thiazole_O-.chk
 ----------------------------------------------------
 # opt b3lyp/genecp geom=connectivity scf=maxcyc=1000
 ----------------------------------------------------
 1/18=20,19=15,26=3,38=1,57=2/1,3;
 2/9=110,12=2,17=6,18=5,40=1/2;
 3/5=7,11=2,16=1,17=8,25=1,30=1,71=1,74=-5/1,2,3;
 4//1;
 5/5=2,7=1000,38=5/2;
 6/7=2,8=2,9=2,10=2,28=1/1;
 7//1,2,3,16;
 1/18=20,19=15,26=3/3(2);
 2/9=110/2;
 99//99;
 2/9=110/2;
 3/5=7,6=1,11=2,16=1,17=8,25=1,30=1,71=1,74=-5,82=7/1,2,3;
 4/5=5,16=3,69=1/1;
 5/5=2,7=1000,38=5/2;
 7//1,2,3,16;
 1/18=20,19=15,26=3/3(-5);
 2/9=110/2;
 6/7=2,8=2,9=2,10=2,19=2,28=1/1;
 99/9=1/99;
 -----
 title
 -----
 Symbolic Z-matrix:
 Charge = -1 Multiplicity = 1
 C                    -1.61629  -2.67909   0.3277 
 C                     0.85855   1.77361   2.9347 
 C                     0.91608   1.46582   5.25586 
 C                     0.15794   0.35461   4.55079 
 C                    -0.80332  -1.74009   4.37408 
 C                    -1.07403  -3.85428   3.78333 
 C                    -0.93315  -3.10094   2.62927 
 C                     0.12129   2.25625   0.74394 
 C                    -0.12718   3.21291  -0.43643 
 C                    -2.3142   -0.81737  -0.65956 
 C                    -2.96091  -1.8789   -1.27805 
 C                    -1.44642   1.33106  -0.60963 
 H                    -3.70255  -1.82551  -2.04517 
 H                     0.37934   4.13767  -0.60665 
 H                     1.03356   1.58695   6.31205 
 N                    -0.80009  -1.80768   2.93293 
 N                    -1.5465   -1.34663   0.44612 
 N                     0.17268   0.64048   3.09726 
 N                    -0.64052   1.14039   0.61387 
 C                     1.40101   2.26669   4.29299 
 H                     2.02866   3.11664   4.44335 
 C                    -1.11375  -2.99668   4.86471 
 H                    -1.32536  -3.2616    5.87776 
 C                    -2.43062  -3.03262  -0.73371 
 C                    -1.09691   2.68927  -1.20478 
 H                    -1.54003   3.13784  -2.06678 
 C                    -0.97987  -3.6642    1.25197 
 C                    -2.34137   0.46995  -1.09947 
 C                    -0.44199  -0.67979   5.14507 
 C                     1.0097    2.49707   1.77361 
 C                    -0.6943   -0.72187   6.65047 
 C                     0.38359  -0.99603   7.48252 
 C                    -1.97346  -0.50325   7.18617 
 C                     0.18551  -1.11891   8.85797 
 C                    -2.15351  -0.53112   8.57557 
 C                    -1.07772  -0.86574   9.40941 
 C                     2.0921    3.58739   1.65465 
 C                     3.4423    3.24036   1.44141 
 C                     1.72749   4.92877   1.75954 
 C                     4.40672   4.25094   1.29217 
 C                     2.70558   5.92913   1.70331 
 C                     4.04073   5.5938    1.44702 
 C                    -3.34847   0.87805  -2.16581 
 C                    -2.9104    0.98396  -3.47972 
 C                    -4.6855    1.13132  -1.83273 
 C                    -3.82188   1.28913  -4.49063 
 C                    -5.57934   1.53306  -2.83213 
 C                    -5.1526    1.58631  -4.16642 
 Ni                   -0.68748  -0.35373   1.77081 
 C                    -2.74528  -4.44185  -1.21195 
 C                    -3.75123  -6.33743  -2.29997 
 F                    -3.01811  -0.22311   6.3742 
 F                    -3.35634  -0.22813   9.11123 
 F                    -1.25645  -0.94477   10.74382 
 F                     1.21058  -1.49234   9.65016 
 F                     1.60558  -1.1917    6.94628 
 F                     3.80704   1.94358   1.33263 
 F                     5.68492   3.93272   0.99021 
 F                     4.97362   6.56513   1.34963 
 F                     2.36115   7.21771   1.90688 
 F                     0.43468   5.2555    1.96258 
 F                    -1.61637   0.74036  -3.77488 
 F                    -3.41995   1.28606  -5.7779 
 F                    -6.02213   1.92386  -5.13987 
 F                    -6.84532   1.87734  -2.51117 
 F                    -5.10115   1.0339   -0.54974 
 H                    -4.37139  -6.83867  -3.01179 
 O                    -0.63454  -4.83437   0.93594 
 C                    -3.02799  -6.98041  -1.34057 
 H                    -3.0719   -8.0251   -1.13661 
 S                    -2.00682  -5.8533   -0.46013 
 H                    -1.17606  -4.91753   3.8464 
 N                    -3.58477  -4.7944   -2.2246 
 

 GradGradGradGradGradGradGradGradGradGradGradGradGradGradGradGradGradGrad
 Berny optimization.
 Initialization pass.
                           ----------------------------
                           !    Initial Parameters    !
                           ! (Angstroms and Degrees)  !
 --------------------------                            --------------------------
 ! Name  Definition              Value          Derivative Info.                !
 --------------------------------------------------------------------------------
 ! R1    R(1,17)                 1.3395         estimate D2E/DX2                !
 ! R2    R(1,24)                 1.3837         estimate D2E/DX2                !
 ! R3    R(1,27)                 1.4932         estimate D2E/DX2                !
 ! R4    R(2,18)                 1.3345         estimate D2E/DX2                !
 ! R5    R(2,20)                 1.5435         estimate D2E/DX2                !
 ! R6    R(2,30)                 1.3764         estimate D2E/DX2                !
 ! R7    R(3,4)                  1.5188         estimate D2E/DX2                !
 ! R8    R(3,15)                 1.0696         estimate D2E/DX2                !
 ! R9    R(3,20)                 1.343          estimate D2E/DX2                !
 ! R10   R(4,18)                 1.4814         estimate D2E/DX2                !
 ! R11   R(4,29)                 1.3353         estimate D2E/DX2                !
 ! R12   R(5,16)                 1.4427         estimate D2E/DX2                !
 ! R13   R(5,22)                 1.3842         estimate D2E/DX2                !
 ! R14   R(5,29)                 1.3599         estimate D2E/DX2                !
 ! R15   R(6,7)                  1.3854         estimate D2E/DX2                !
 ! R16   R(6,22)                 1.3807         estimate D2E/DX2                !
 ! R17   R(6,72)                 1.07           estimate D2E/DX2                !
 ! R18   R(7,16)                 1.3351         estimate D2E/DX2                !
 ! R19   R(7,27)                 1.4888         estimate D2E/DX2                !
 ! R20   R(8,9)                  1.5395         estimate D2E/DX2                !
 ! R21   R(8,19)                 1.3574         estimate D2E/DX2                !
 ! R22   R(8,30)                 1.3811         estimate D2E/DX2                !
 ! R23   R(9,14)                 1.068          estimate D2E/DX2                !
 ! R24   R(9,25)                 1.3435         estimate D2E/DX2                !
 ! R25   R(10,11)                1.3884         estimate D2E/DX2                !
 ! R26   R(10,17)                1.4464         estimate D2E/DX2                !
 ! R27   R(10,28)                1.3607         estimate D2E/DX2                !
 ! R28   R(11,13)                1.0683         estimate D2E/DX2                !
 ! R29   R(11,24)                1.3815         estimate D2E/DX2                !
 ! R30   R(12,19)                1.4774         estimate D2E/DX2                !
 ! R31   R(12,25)                1.5235         estimate D2E/DX2                !
 ! R32   R(12,28)                1.3351         estimate D2E/DX2                !
 ! R33   R(16,49)                1.8647         estimate D2E/DX2                !
 ! R34   R(17,49)                1.8651         estimate D2E/DX2                !
 ! R35   R(18,49)                1.8676         estimate D2E/DX2                !
 ! R36   R(19,49)                1.8903         estimate D2E/DX2                !
 ! R37   R(20,21)                1.0672         estimate D2E/DX2                !
 ! R38   R(22,23)                1.0683         estimate D2E/DX2                !
 ! R39   R(24,50)                1.5211         estimate D2E/DX2                !
 ! R40   R(25,26)                1.068          estimate D2E/DX2                !
 ! R41   R(27,68)                1.2603         estimate D2E/DX2                !
 ! R42   R(28,43)                1.5225         estimate D2E/DX2                !
 ! R43   R(29,31)                1.527          estimate D2E/DX2                !
 ! R44   R(30,37)                1.5409         estimate D2E/DX2                !
 ! R45   R(31,32)                1.389          estimate D2E/DX2                !
 ! R46   R(31,33)                1.4039         estimate D2E/DX2                !
 ! R47   R(32,34)                1.3951         estimate D2E/DX2                !
 ! R48   R(32,56)                1.3487         estimate D2E/DX2                !
 ! R49   R(33,35)                1.4013         estimate D2E/DX2                !
 ! R50   R(33,52)                1.3524         estimate D2E/DX2                !
 ! R51   R(34,36)                1.4014         estimate D2E/DX2                !
 ! R52   R(34,55)                1.3482         estimate D2E/DX2                !
 ! R53   R(35,36)                1.4016         estimate D2E/DX2                !
 ! R54   R(35,53)                1.3511         estimate D2E/DX2                !
 ! R55   R(36,54)                1.3486         estimate D2E/DX2                !
 ! R56   R(37,38)                1.4103         estimate D2E/DX2                !
 ! R57   R(37,39)                1.394          estimate D2E/DX2                !
 ! R58   R(38,40)                1.4049         estimate D2E/DX2                !
 ! R59   R(38,57)                1.3515         estimate D2E/DX2                !
 ! R60   R(39,41)                1.4002         estimate D2E/DX2                !
 ! R61   R(39,61)                1.3488         estimate D2E/DX2                !
 ! R62   R(40,42)                1.4004         estimate D2E/DX2                !
 ! R63   R(40,58)                1.3514         estimate D2E/DX2                !
 ! R64   R(41,42)                1.4003         estimate D2E/DX2                !
 ! R65   R(41,60)                1.3493         estimate D2E/DX2                !
 ! R66   R(42,59)                1.3503         estimate D2E/DX2                !
 ! R67   R(43,44)                1.3891         estimate D2E/DX2                !
 ! R68   R(43,45)                1.401          estimate D2E/DX2                !
 ! R69   R(44,46)                1.3949         estimate D2E/DX2                !
 ! R70   R(44,62)                1.3494         estimate D2E/DX2                !
 ! R71   R(45,47)                1.3997         estimate D2E/DX2                !
 ! R72   R(45,66)                1.3522         estimate D2E/DX2                !
 ! R73   R(46,48)                1.4015         estimate D2E/DX2                !
 ! R74   R(46,63)                1.3486         estimate D2E/DX2                !
 ! R75   R(47,48)                1.4019         estimate D2E/DX2                !
 ! R76   R(47,65)                1.3506         estimate D2E/DX2                !
 ! R77   R(48,64)                1.3482         estimate D2E/DX2                !
 ! R78   R(50,71)                1.7615         estimate D2E/DX2                !
 ! R79   R(50,73)                1.3618         estimate D2E/DX2                !
 ! R80   R(51,67)                1.0689         estimate D2E/DX2                !
 ! R81   R(51,69)                1.3627         estimate D2E/DX2                !
 ! R82   R(51,73)                1.5538         estimate D2E/DX2                !
 ! R83   R(69,70)                1.0653         estimate D2E/DX2                !
 ! R84   R(69,71)                1.7574         estimate D2E/DX2                !
 ! A1    A(17,1,24)            110.6473         estimate D2E/DX2                !
 ! A2    A(17,1,27)            125.4021         estimate D2E/DX2                !
 ! A3    A(24,1,27)            123.8527         estimate D2E/DX2                !
 ! A4    A(18,2,20)            110.1629         estimate D2E/DX2                !
 ! A5    A(18,2,30)            127.2673         estimate D2E/DX2                !
 ! A6    A(20,2,30)            122.4022         estimate D2E/DX2                !
 ! A7    A(4,3,15)             126.5917         estimate D2E/DX2                !
 ! A8    A(4,3,20)             106.4821         estimate D2E/DX2                !
 ! A9    A(15,3,20)            126.9253         estimate D2E/DX2                !
 ! A10   A(3,4,18)             108.019          estimate D2E/DX2                !
 ! A11   A(3,4,29)             125.7631         estimate D2E/DX2                !
 ! A12   A(18,4,29)            126.2006         estimate D2E/DX2                !
 ! A13   A(16,5,22)            108.1809         estimate D2E/DX2                !
 ! A14   A(16,5,29)            127.033          estimate D2E/DX2                !
 ! A15   A(22,5,29)            124.5031         estimate D2E/DX2                !
 ! A16   A(7,6,22)             108.5179         estimate D2E/DX2                !
 ! A17   A(7,6,72)             126.8094         estimate D2E/DX2                !
 ! A18   A(22,6,72)            124.6314         estimate D2E/DX2                !
 ! A19   A(6,7,16)             110.3295         estimate D2E/DX2                !
 ! A20   A(6,7,27)             124.1765         estimate D2E/DX2                !
 ! A21   A(16,7,27)            125.453          estimate D2E/DX2                !
 ! A22   A(9,8,19)             110.2903         estimate D2E/DX2                !
 ! A23   A(9,8,30)             124.5462         estimate D2E/DX2                !
 ! A24   A(19,8,30)            125.1563         estimate D2E/DX2                !
 ! A25   A(8,9,14)             125.7092         estimate D2E/DX2                !
 ! A26   A(8,9,25)             108.2271         estimate D2E/DX2                !
 ! A27   A(14,9,25)            126.0611         estimate D2E/DX2                !
 ! A28   A(11,10,17)           107.9393         estimate D2E/DX2                !
 ! A29   A(11,10,28)           124.7526         estimate D2E/DX2                !
 ! A30   A(17,10,28)           127.152          estimate D2E/DX2                !
 ! A31   A(10,11,13)           127.2305         estimate D2E/DX2                !
 ! A32   A(10,11,24)           106.5102         estimate D2E/DX2                !
 ! A33   A(13,11,24)           126.2367         estimate D2E/DX2                !
 ! A34   A(19,12,25)           108.2653         estimate D2E/DX2                !
 ! A35   A(19,12,28)           125.8922         estimate D2E/DX2                !
 ! A36   A(25,12,28)           125.8361         estimate D2E/DX2                !
 ! A37   A(5,16,7)             105.8044         estimate D2E/DX2                !
 ! A38   A(5,16,49)            125.8828         estimate D2E/DX2                !
 ! A39   A(7,16,49)            128.2847         estimate D2E/DX2                !
 ! A40   A(1,17,10)            105.59           estimate D2E/DX2                !
 ! A41   A(1,17,49)            128.0487         estimate D2E/DX2                !
 ! A42   A(10,17,49)           126.3432         estimate D2E/DX2                !
 ! A43   A(2,18,4)             106.7675         estimate D2E/DX2                !
 ! A44   A(2,18,49)            127.0301         estimate D2E/DX2                !
 ! A45   A(4,18,49)            126.1257         estimate D2E/DX2                !
 ! A46   A(8,19,12)            106.2251         estimate D2E/DX2                !
 ! A47   A(8,19,49)            127.2351         estimate D2E/DX2                !
 ! A48   A(12,19,49)           126.5351         estimate D2E/DX2                !
 ! A49   A(2,20,3)             108.2714         estimate D2E/DX2                !
 ! A50   A(2,20,21)            125.8099         estimate D2E/DX2                !
 ! A51   A(3,20,21)            125.8929         estimate D2E/DX2                !
 ! A52   A(5,22,6)             106.2481         estimate D2E/DX2                !
 ! A53   A(5,22,23)            127.2756         estimate D2E/DX2                !
 ! A54   A(6,22,23)            126.4679         estimate D2E/DX2                !
 ! A55   A(1,24,11)            108.3468         estimate D2E/DX2                !
 ! A56   A(1,24,50)            126.8425         estimate D2E/DX2                !
 ! A57   A(11,24,50)           124.7798         estimate D2E/DX2                !
 ! A58   A(9,25,12)            106.8371         estimate D2E/DX2                !
 ! A59   A(9,25,26)            126.6819         estimate D2E/DX2                !
 ! A60   A(12,25,26)           126.4809         estimate D2E/DX2                !
 ! A61   A(1,27,7)             109.6579         estimate D2E/DX2                !
 ! A62   A(1,27,68)            125.0366         estimate D2E/DX2                !
 ! A63   A(7,27,68)            125.0756         estimate D2E/DX2                !
 ! A64   A(10,28,12)           118.569          estimate D2E/DX2                !
 ! A65   A(10,28,43)           119.5546         estimate D2E/DX2                !
 ! A66   A(12,28,43)           121.8379         estimate D2E/DX2                !
 ! A67   A(4,29,5)             118.1028         estimate D2E/DX2                !
 ! A68   A(4,29,31)            122.2994         estimate D2E/DX2                !
 ! A69   A(5,29,31)            119.5748         estimate D2E/DX2                !
 ! A70   A(2,30,8)             117.8158         estimate D2E/DX2                !
 ! A71   A(2,30,37)            120.9431         estimate D2E/DX2                !
 ! A72   A(8,30,37)            121.175          estimate D2E/DX2                !
 ! A73   A(29,31,32)           117.8905         estimate D2E/DX2                !
 ! A74   A(29,31,33)           121.4956         estimate D2E/DX2                !
 ! A75   A(32,31,33)           120.6117         estimate D2E/DX2                !
 ! A76   A(31,32,34)           119.8554         estimate D2E/DX2                !
 ! A77   A(31,32,56)           119.5748         estimate D2E/DX2                !
 ! A78   A(34,32,56)           120.5213         estimate D2E/DX2                !
 ! A79   A(31,33,35)           119.492          estimate D2E/DX2                !
 ! A80   A(31,33,52)           120.4608         estimate D2E/DX2                !
 ! A81   A(35,33,52)           120.0102         estimate D2E/DX2                !
 ! A82   A(32,34,36)           120.002          estimate D2E/DX2                !
 ! A83   A(32,34,55)           119.7194         estimate D2E/DX2                !
 ! A84   A(36,34,55)           120.2763         estimate D2E/DX2                !
 ! A85   A(33,35,36)           119.7349         estimate D2E/DX2                !
 ! A86   A(33,35,53)           120.1994         estimate D2E/DX2                !
 ! A87   A(36,35,53)           120.0642         estimate D2E/DX2                !
 ! A88   A(34,36,35)           120.0589         estimate D2E/DX2                !
 ! A89   A(34,36,54)           119.8815         estimate D2E/DX2                !
 ! A90   A(35,36,54)           120.0597         estimate D2E/DX2                !
 ! A91   A(30,37,38)           120.6676         estimate D2E/DX2                !
 ! A92   A(30,37,39)           119.4272         estimate D2E/DX2                !
 ! A93   A(38,37,39)           119.9052         estimate D2E/DX2                !
 ! A94   A(37,38,40)           119.7549         estimate D2E/DX2                !
 ! A95   A(37,38,57)           120.4416         estimate D2E/DX2                !
 ! A96   A(40,38,57)           119.7622         estimate D2E/DX2                !
 ! A97   A(37,39,41)           120.1154         estimate D2E/DX2                !
 ! A98   A(37,39,61)           119.6774         estimate D2E/DX2                !
 ! A99   A(41,39,61)           120.166          estimate D2E/DX2                !
 ! A100  A(38,40,42)           119.9083         estimate D2E/DX2                !
 ! A101  A(38,40,58)           120.2424         estimate D2E/DX2                !
 ! A102  A(42,40,58)           119.8476         estimate D2E/DX2                !
 ! A103  A(39,41,42)           120.1528         estimate D2E/DX2                !
 ! A104  A(39,41,60)           119.8634         estimate D2E/DX2                !
 ! A105  A(42,41,60)           119.9818         estimate D2E/DX2                !
 ! A106  A(40,42,41)           119.9381         estimate D2E/DX2                !
 ! A107  A(40,42,59)           120.0827         estimate D2E/DX2                !
 ! A108  A(41,42,59)           119.9791         estimate D2E/DX2                !
 ! A109  A(28,43,44)           118.3164         estimate D2E/DX2                !
 ! A110  A(28,43,45)           120.8797         estimate D2E/DX2                !
 ! A111  A(44,43,45)           120.8023         estimate D2E/DX2                !
 ! A112  A(43,44,46)           119.7428         estimate D2E/DX2                !
 ! A113  A(43,44,62)           119.706          estimate D2E/DX2                !
 ! A114  A(46,44,62)           120.5021         estimate D2E/DX2                !
 ! A115  A(43,45,47)           119.4444         estimate D2E/DX2                !
 ! A116  A(43,45,66)           120.3929         estimate D2E/DX2                !
 ! A117  A(47,45,66)           120.1238         estimate D2E/DX2                !
 ! A118  A(44,46,48)           119.9442         estimate D2E/DX2                !
 ! A119  A(44,46,63)           119.7698         estimate D2E/DX2                !
 ! A120  A(48,46,63)           120.2838         estimate D2E/DX2                !
 ! A121  A(45,47,48)           119.7422         estimate D2E/DX2                !
 ! A122  A(45,47,65)           120.1358         estimate D2E/DX2                !
 ! A123  A(48,47,65)           120.1203         estimate D2E/DX2                !
 ! A124  A(46,48,47)           120.0759         estimate D2E/DX2                !
 ! A125  A(46,48,64)           119.897          estimate D2E/DX2                !
 ! A126  A(47,48,64)           120.0271         estimate D2E/DX2                !
 ! A127  A(16,49,17)            89.9849         estimate D2E/DX2                !
 ! A128  A(16,49,18)            90.0153         estimate D2E/DX2                !
 ! A129  A(17,49,19)            89.8577         estimate D2E/DX2                !
 ! A130  A(18,49,19)            90.1421         estimate D2E/DX2                !
 ! A131  A(24,50,71)           121.4302         estimate D2E/DX2                !
 ! A132  A(24,50,73)           126.9538         estimate D2E/DX2                !
 ! A133  A(71,50,73)           111.6158         estimate D2E/DX2                !
 ! A134  A(67,51,69)           123.7462         estimate D2E/DX2                !
 ! A135  A(67,51,73)           124.0659         estimate D2E/DX2                !
 ! A136  A(69,51,73)           112.1825         estimate D2E/DX2                !
 ! A137  A(51,69,70)           125.143          estimate D2E/DX2                !
 ! A138  A(51,69,71)           111.0086         estimate D2E/DX2                !
 ! A139  A(70,69,71)           123.8469         estimate D2E/DX2                !
 ! A140  A(50,71,69)            93.2375         estimate D2E/DX2                !
 ! A141  A(50,73,51)           111.0513         estimate D2E/DX2                !
 ! A142  L(16,49,19,18,-1)     180.1574         estimate D2E/DX2                !
 ! A143  L(17,49,18,19,-1)     179.9998         estimate D2E/DX2                !
 ! A144  L(16,49,19,18,-2)     182.2159         estimate D2E/DX2                !
 ! A145  L(17,49,18,19,-2)     179.9999         estimate D2E/DX2                !
 ! D1    D(24,1,17,10)          -3.0997         estimate D2E/DX2                !
 ! D2    D(24,1,17,49)         175.417          estimate D2E/DX2                !
 ! D3    D(27,1,17,10)        -179.6058         estimate D2E/DX2                !
 ! D4    D(27,1,17,49)          -1.089          estimate D2E/DX2                !
 ! D5    D(17,1,24,11)          -3.1449         estimate D2E/DX2                !
 ! D6    D(17,1,24,50)         178.8123         estimate D2E/DX2                !
 ! D7    D(27,1,24,11)         173.4258         estimate D2E/DX2                !
 ! D8    D(27,1,24,50)          -4.617          estimate D2E/DX2                !
 ! D9    D(17,1,27,7)           31.477          estimate D2E/DX2                !
 ! D10   D(17,1,27,68)        -153.8089         estimate D2E/DX2                !
 ! D11   D(24,1,27,7)         -144.5854         estimate D2E/DX2                !
 ! D12   D(24,1,27,68)          30.1288         estimate D2E/DX2                !
 ! D13   D(20,2,18,4)            2.8054         estimate D2E/DX2                !
 ! D14   D(20,2,18,49)         179.7578         estimate D2E/DX2                !
 ! D15   D(30,2,18,4)         -172.5369         estimate D2E/DX2                !
 ! D16   D(30,2,18,49)           4.4155         estimate D2E/DX2                !
 ! D17   D(18,2,20,3)           -5.4627         estimate D2E/DX2                !
 ! D18   D(18,2,20,21)         176.2995         estimate D2E/DX2                !
 ! D19   D(30,2,20,3)          170.1476         estimate D2E/DX2                !
 ! D20   D(30,2,20,21)          -8.0902         estimate D2E/DX2                !
 ! D21   D(18,2,30,8)           17.7371         estimate D2E/DX2                !
 ! D22   D(18,2,30,37)        -165.1856         estimate D2E/DX2                !
 ! D23   D(20,2,30,8)         -157.083          estimate D2E/DX2                !
 ! D24   D(20,2,30,37)          19.9943         estimate D2E/DX2                !
 ! D25   D(15,3,4,18)          175.8515         estimate D2E/DX2                !
 ! D26   D(15,3,4,29)           -2.7062         estimate D2E/DX2                !
 ! D27   D(20,3,4,18)           -3.8086         estimate D2E/DX2                !
 ! D28   D(20,3,4,29)          177.6337         estimate D2E/DX2                !
 ! D29   D(4,3,20,2)             5.3119         estimate D2E/DX2                !
 ! D30   D(4,3,20,21)         -176.4521         estimate D2E/DX2                !
 ! D31   D(15,3,20,2)         -174.3467         estimate D2E/DX2                !
 ! D32   D(15,3,20,21)           3.8893         estimate D2E/DX2                !
 ! D33   D(3,4,18,2)             0.3802         estimate D2E/DX2                !
 ! D34   D(3,4,18,49)         -176.6077         estimate D2E/DX2                !
 ! D35   D(29,4,18,2)          178.9298         estimate D2E/DX2                !
 ! D36   D(29,4,18,49)           1.9419         estimate D2E/DX2                !
 ! D37   D(3,4,29,5)          -164.8852         estimate D2E/DX2                !
 ! D38   D(3,4,29,31)           13.3613         estimate D2E/DX2                !
 ! D39   D(18,4,29,5)           16.8145         estimate D2E/DX2                !
 ! D40   D(18,4,29,31)        -164.939          estimate D2E/DX2                !
 ! D41   D(22,5,16,7)           -7.6286         estimate D2E/DX2                !
 ! D42   D(22,5,16,49)         170.5718         estimate D2E/DX2                !
 ! D43   D(29,5,16,7)          166.4373         estimate D2E/DX2                !
 ! D44   D(29,5,16,49)         -15.3623         estimate D2E/DX2                !
 ! D45   D(16,5,22,6)            9.8091         estimate D2E/DX2                !
 ! D46   D(16,5,22,23)        -171.1994         estimate D2E/DX2                !
 ! D47   D(29,5,22,6)         -164.4433         estimate D2E/DX2                !
 ! D48   D(29,5,22,23)          14.5482         estimate D2E/DX2                !
 ! D49   D(16,5,29,4)          -10.2325         estimate D2E/DX2                !
 ! D50   D(16,5,29,31)         171.4717         estimate D2E/DX2                !
 ! D51   D(22,5,29,4)          162.9222         estimate D2E/DX2                !
 ! D52   D(22,5,29,31)         -15.3736         estimate D2E/DX2                !
 ! D53   D(22,6,7,16)            3.7399         estimate D2E/DX2                !
 ! D54   D(22,6,7,27)         -174.0408         estimate D2E/DX2                !
 ! D55   D(72,6,7,16)         -178.523          estimate D2E/DX2                !
 ! D56   D(72,6,7,27)            3.6962         estimate D2E/DX2                !
 ! D57   D(7,6,22,5)            -8.4053         estimate D2E/DX2                !
 ! D58   D(7,6,22,23)          172.5926         estimate D2E/DX2                !
 ! D59   D(72,6,22,5)          173.7966         estimate D2E/DX2                !
 ! D60   D(72,6,22,23)          -5.2056         estimate D2E/DX2                !
 ! D61   D(6,7,16,5)             2.3638         estimate D2E/DX2                !
 ! D62   D(6,7,16,49)         -175.7786         estimate D2E/DX2                !
 ! D63   D(27,7,16,5)         -179.8901         estimate D2E/DX2                !
 ! D64   D(27,7,16,49)           1.9675         estimate D2E/DX2                !
 ! D65   D(6,7,27,1)           145.498          estimate D2E/DX2                !
 ! D66   D(6,7,27,68)          -29.2136         estimate D2E/DX2                !
 ! D67   D(16,7,27,1)          -31.9472         estimate D2E/DX2                !
 ! D68   D(16,7,27,68)         153.3412         estimate D2E/DX2                !
 ! D69   D(19,8,9,14)         -176.6353         estimate D2E/DX2                !
 ! D70   D(19,8,9,25)            3.9199         estimate D2E/DX2                !
 ! D71   D(30,8,9,14)            2.4382         estimate D2E/DX2                !
 ! D72   D(30,8,9,25)         -177.0065         estimate D2E/DX2                !
 ! D73   D(9,8,19,12)           -1.9818         estimate D2E/DX2                !
 ! D74   D(9,8,19,49)          178.7644         estimate D2E/DX2                !
 ! D75   D(30,8,19,12)         178.9516         estimate D2E/DX2                !
 ! D76   D(30,8,19,49)          -0.3023         estimate D2E/DX2                !
 ! D77   D(9,8,30,2)           161.554          estimate D2E/DX2                !
 ! D78   D(9,8,30,37)          -15.5162         estimate D2E/DX2                !
 ! D79   D(19,8,30,2)          -19.5088         estimate D2E/DX2                !
 ! D80   D(19,8,30,37)         163.421          estimate D2E/DX2                !
 ! D81   D(8,9,25,12)           -3.8603         estimate D2E/DX2                !
 ! D82   D(8,9,25,26)          176.0607         estimate D2E/DX2                !
 ! D83   D(14,9,25,12)         176.6975         estimate D2E/DX2                !
 ! D84   D(14,9,25,26)          -3.3816         estimate D2E/DX2                !
 ! D85   D(17,10,11,13)        171.5661         estimate D2E/DX2                !
 ! D86   D(17,10,11,24)        -10.0876         estimate D2E/DX2                !
 ! D87   D(28,10,11,13)        -12.7037         estimate D2E/DX2                !
 ! D88   D(28,10,11,24)        165.6426         estimate D2E/DX2                !
 ! D89   D(11,10,17,1)           8.2187         estimate D2E/DX2                !
 ! D90   D(11,10,17,49)       -170.3312         estimate D2E/DX2                !
 ! D91   D(28,10,17,1)        -167.3796         estimate D2E/DX2                !
 ! D92   D(28,10,17,49)         14.0705         estimate D2E/DX2                !
 ! D93   D(11,10,28,12)       -164.7712         estimate D2E/DX2                !
 ! D94   D(11,10,28,43)         13.013          estimate D2E/DX2                !
 ! D95   D(17,10,28,12)         10.1301         estimate D2E/DX2                !
 ! D96   D(17,10,28,43)       -172.0856         estimate D2E/DX2                !
 ! D97   D(10,11,24,1)           8.2434         estimate D2E/DX2                !
 ! D98   D(10,11,24,50)       -173.6636         estimate D2E/DX2                !
 ! D99   D(13,11,24,1)        -173.3891         estimate D2E/DX2                !
 ! D100  D(13,11,24,50)          4.7039         estimate D2E/DX2                !
 ! D101  D(25,12,19,8)          -0.3307         estimate D2E/DX2                !
 ! D102  D(25,12,19,49)        178.93           estimate D2E/DX2                !
 ! D103  D(28,12,19,8)        -179.4484         estimate D2E/DX2                !
 ! D104  D(28,12,19,49)         -0.1877         estimate D2E/DX2                !
 ! D105  D(19,12,25,9)           2.7968         estimate D2E/DX2                !
 ! D106  D(19,12,25,26)       -177.1244         estimate D2E/DX2                !
 ! D107  D(28,12,25,9)        -178.0849         estimate D2E/DX2                !
 ! D108  D(28,12,25,26)          1.9939         estimate D2E/DX2                !
 ! D109  D(19,12,28,10)        -16.8096         estimate D2E/DX2                !
 ! D110  D(19,12,28,43)        165.4593         estimate D2E/DX2                !
 ! D111  D(25,12,28,10)        164.2239         estimate D2E/DX2                !
 ! D112  D(25,12,28,43)        -13.5072         estimate D2E/DX2                !
 ! D113  D(5,16,49,17)        -154.8724         estimate D2E/DX2                !
 ! D114  D(5,16,49,18)          25.1276         estimate D2E/DX2                !
 ! D115  D(7,16,49,17)          22.9214         estimate D2E/DX2                !
 ! D116  D(7,16,49,18)        -157.0786         estimate D2E/DX2                !
 ! D117  D(1,17,49,16)         -23.258          estimate D2E/DX2                !
 ! D118  D(1,17,49,19)         158.9579         estimate D2E/DX2                !
 ! D119  D(10,17,49,16)        154.9682         estimate D2E/DX2                !
 ! D120  D(10,17,49,19)        -22.8159         estimate D2E/DX2                !
 ! D121  D(2,18,49,16)         164.3895         estimate D2E/DX2                !
 ! D122  D(2,18,49,19)         -17.8264         estimate D2E/DX2                !
 ! D123  D(4,18,49,16)         -19.2239         estimate D2E/DX2                !
 ! D124  D(4,18,49,19)         158.5603         estimate D2E/DX2                !
 ! D125  D(8,19,49,17)        -164.1022         estimate D2E/DX2                !
 ! D126  D(8,19,49,18)          15.8978         estimate D2E/DX2                !
 ! D127  D(12,19,49,17)         16.7894         estimate D2E/DX2                !
 ! D128  D(12,19,49,18)       -163.2105         estimate D2E/DX2                !
 ! D129  D(1,24,50,71)          -2.7692         estimate D2E/DX2                !
 ! D130  D(1,24,50,73)         177.3779         estimate D2E/DX2                !
 ! D131  D(11,24,50,71)        179.4927         estimate D2E/DX2                !
 ! D132  D(11,24,50,73)         -0.3602         estimate D2E/DX2                !
 ! D133  D(10,28,43,44)       -100.3567         estimate D2E/DX2                !
 ! D134  D(10,28,43,45)         79.1971         estimate D2E/DX2                !
 ! D135  D(12,28,43,44)         77.3527         estimate D2E/DX2                !
 ! D136  D(12,28,43,45)       -103.0936         estimate D2E/DX2                !
 ! D137  D(4,29,31,32)         -76.1283         estimate D2E/DX2                !
 ! D138  D(4,29,31,33)         104.4119         estimate D2E/DX2                !
 ! D139  D(5,29,31,32)         102.0932         estimate D2E/DX2                !
 ! D140  D(5,29,31,33)         -77.3666         estimate D2E/DX2                !
 ! D141  D(2,30,37,38)          77.5606         estimate D2E/DX2                !
 ! D142  D(2,30,37,39)        -102.443          estimate D2E/DX2                !
 ! D143  D(8,30,37,38)        -105.4607         estimate D2E/DX2                !
 ! D144  D(8,30,37,39)          74.5356         estimate D2E/DX2                !
 ! D145  D(29,31,32,34)       -176.3988         estimate D2E/DX2                !
 ! D146  D(29,31,32,56)          1.0832         estimate D2E/DX2                !
 ! D147  D(33,31,32,34)          3.0661         estimate D2E/DX2                !
 ! D148  D(33,31,32,56)       -179.452          estimate D2E/DX2                !
 ! D149  D(29,31,33,35)       -179.018          estimate D2E/DX2                !
 ! D150  D(29,31,33,52)         -1.2303         estimate D2E/DX2                !
 ! D151  D(32,31,33,35)          1.5368         estimate D2E/DX2                !
 ! D152  D(32,31,33,52)        179.3245         estimate D2E/DX2                !
 ! D153  D(31,32,34,36)         -4.8613         estimate D2E/DX2                !
 ! D154  D(31,32,34,55)        174.591          estimate D2E/DX2                !
 ! D155  D(56,32,34,36)        177.6809         estimate D2E/DX2                !
 ! D156  D(56,32,34,55)         -2.8668         estimate D2E/DX2                !
 ! D157  D(31,33,35,36)         -4.3217         estimate D2E/DX2                !
 ! D158  D(31,33,35,53)        175.2341         estimate D2E/DX2                !
 ! D159  D(52,33,35,36)        177.8805         estimate D2E/DX2                !
 ! D160  D(52,33,35,53)         -2.5637         estimate D2E/DX2                !
 ! D161  D(32,34,36,35)          2.0618         estimate D2E/DX2                !
 ! D162  D(32,34,36,54)       -177.9443         estimate D2E/DX2                !
 ! D163  D(55,34,36,35)       -177.3874         estimate D2E/DX2                !
 ! D164  D(55,34,36,54)          2.6065         estimate D2E/DX2                !
 ! D165  D(33,35,36,34)          2.5426         estimate D2E/DX2                !
 ! D166  D(33,35,36,54)       -177.4513         estimate D2E/DX2                !
 ! D167  D(53,35,36,34)       -177.0138         estimate D2E/DX2                !
 ! D168  D(53,35,36,54)          2.9923         estimate D2E/DX2                !
 ! D169  D(30,37,38,40)        177.9227         estimate D2E/DX2                !
 ! D170  D(30,37,38,57)          0.2666         estimate D2E/DX2                !
 ! D171  D(39,37,38,40)         -2.0736         estimate D2E/DX2                !
 ! D172  D(39,37,38,57)       -179.7297         estimate D2E/DX2                !
 ! D173  D(30,37,39,41)        177.6285         estimate D2E/DX2                !
 ! D174  D(30,37,39,61)         -0.0411         estimate D2E/DX2                !
 ! D175  D(38,37,39,41)         -2.3751         estimate D2E/DX2                !
 ! D176  D(38,37,39,61)        179.9553         estimate D2E/DX2                !
 ! D177  D(37,38,40,42)          4.3869         estimate D2E/DX2                !
 ! D178  D(37,38,40,58)       -175.1401         estimate D2E/DX2                !
 ! D179  D(57,38,40,42)       -177.941          estimate D2E/DX2                !
 ! D180  D(57,38,40,58)          2.532          estimate D2E/DX2                !
 ! D181  D(37,39,41,42)          4.5283         estimate D2E/DX2                !
 ! D182  D(37,39,41,60)       -174.9638         estimate D2E/DX2                !
 ! D183  D(61,39,41,42)       -177.8135         estimate D2E/DX2                !
 ! D184  D(61,39,41,60)          2.6943         estimate D2E/DX2                !
 ! D185  D(38,40,42,41)         -2.2586         estimate D2E/DX2                !
 ! D186  D(38,40,42,59)        177.734          estimate D2E/DX2                !
 ! D187  D(58,40,42,41)        177.2703         estimate D2E/DX2                !
 ! D188  D(58,40,42,59)         -2.7371         estimate D2E/DX2                !
 ! D189  D(39,41,42,40)         -2.1988         estimate D2E/DX2                !
 ! D190  D(39,41,42,59)        177.8086         estimate D2E/DX2                !
 ! D191  D(60,41,42,40)        177.2928         estimate D2E/DX2                !
 ! D192  D(60,41,42,59)         -2.6998         estimate D2E/DX2                !
 ! D193  D(28,43,44,46)        176.7465         estimate D2E/DX2                !
 ! D194  D(28,43,44,62)         -0.7187         estimate D2E/DX2                !
 ! D195  D(45,43,44,46)         -2.8076         estimate D2E/DX2                !
 ! D196  D(45,43,44,62)        179.7272         estimate D2E/DX2                !
 ! D197  D(28,43,45,47)        178.6072         estimate D2E/DX2                !
 ! D198  D(28,43,45,66)          0.872          estimate D2E/DX2                !
 ! D199  D(44,43,45,47)         -1.8502         estimate D2E/DX2                !
 ! D200  D(44,43,45,66)       -179.5854         estimate D2E/DX2                !
 ! D201  D(43,44,46,48)          4.8014         estimate D2E/DX2                !
 ! D202  D(43,44,46,63)       -174.6608         estimate D2E/DX2                !
 ! D203  D(62,44,46,48)       -177.7539         estimate D2E/DX2                !
 ! D204  D(62,44,46,63)          2.7839         estimate D2E/DX2                !
 ! D205  D(43,45,47,48)          4.4845         estimate D2E/DX2                !
 ! D206  D(43,45,47,65)       -175.041          estimate D2E/DX2                !
 ! D207  D(66,45,47,48)       -177.774          estimate D2E/DX2                !
 ! D208  D(66,45,47,65)          2.7004         estimate D2E/DX2                !
 ! D209  D(44,46,48,47)         -2.157          estimate D2E/DX2                !
 ! D210  D(44,46,48,64)        177.8312         estimate D2E/DX2                !
 ! D211  D(63,46,48,47)        177.3024         estimate D2E/DX2                !
 ! D212  D(63,46,48,64)         -2.7094         estimate D2E/DX2                !
 ! D213  D(45,47,48,46)         -2.5052         estimate D2E/DX2                !
 ! D214  D(45,47,48,64)        177.5066         estimate D2E/DX2                !
 ! D215  D(65,47,48,46)        177.0205         estimate D2E/DX2                !
 ! D216  D(65,47,48,64)         -2.9678         estimate D2E/DX2                !
 ! D217  D(24,50,71,69)        171.4646         estimate D2E/DX2                !
 ! D218  D(73,50,71,69)         -8.6618         estimate D2E/DX2                !
 ! D219  D(24,50,73,51)       -173.8659         estimate D2E/DX2                !
 ! D220  D(71,50,73,51)          6.2691         estimate D2E/DX2                !
 ! D221  D(67,51,69,70)         -6.1335         estimate D2E/DX2                !
 ! D222  D(67,51,69,71)        174.2855         estimate D2E/DX2                !
 ! D223  D(73,51,69,70)        173.0499         estimate D2E/DX2                !
 ! D224  D(73,51,69,71)         -6.5311         estimate D2E/DX2                !
 ! D225  D(67,51,73,50)        179.3614         estimate D2E/DX2                !
 ! D226  D(69,51,73,50)          0.1811         estimate D2E/DX2                !
 ! D227  D(51,69,71,50)          8.6917         estimate D2E/DX2                !
 ! D228  D(70,69,71,50)       -170.8958         estimate D2E/DX2                !
 --------------------------------------------------------------------------------
 Trust Radius=3.00D-01 FncErr=1.00D-07 GrdErr=1.00D-06 EigMax=2.50D+02 EigMin=1.00D-04
 Number of steps in this run=    438 maximum allowed number of steps=    438.
 GradGradGradGradGradGradGradGradGradGradGradGradGradGradGradGradGradGrad

 Stoichiometry    C41H9F15N5NiOS(1-)
 Framework group  C1[X(C41H9F15N5NiOS)]
 Deg. of freedom   213
 Full point group                 C1      NOp   1
 Largest Abelian subgroup         C1      NOp   1
 Largest concise Abelian subgroup C1      NOp   1
                         Standard orientation:                         
 ---------------------------------------------------------------------
 Center     Atomic      Atomic             Coordinates (Angstroms)
 Number     Number       Type             X           Y           Z
 ---------------------------------------------------------------------
      1          6           0       -1.871583   -2.325046   -1.290607
      2          6           0        2.041823    1.716338   -0.241671
      3          6           0        4.124867    0.765060    0.250074
      4          6           0        3.041214   -0.286260    0.085416
      5          6           0        2.231950   -2.424108   -0.257643
      6          6           0        1.330484   -4.158965   -1.291905
      7          6           0        0.437372   -3.102636   -1.367695
      8          6           0       -0.181929    2.488770   -0.056799
      9          6           0       -1.234371    3.561612    0.277254
     10          6           0       -2.824751   -0.730510   -0.075419
     11          6           0       -3.778320   -1.718915   -0.278815
     12          6           0       -2.161956    1.452519    0.332480
     13          1           0       -4.769964   -1.751668    0.117301
     14          1           0       -1.067518    4.616491    0.288099
     15          1           0        5.141965    0.593449    0.533065
     16          7           0        0.923282   -2.037462   -0.726044
     17          7           0       -1.574272   -1.196318   -0.633394
     18          7           0        1.768983    0.410302   -0.216101
     19          7           0       -0.748265    1.255232   -0.048748
     20          6           0        3.551806    1.948806   -0.021970
     21          1           0        4.048998    2.892685   -0.051000
     22          6           0        2.394968   -3.777234   -0.499711
     23          1           0        3.190848   -4.403921   -0.160486
     24          6           0       -3.208343   -2.644924   -1.130999
     25          6           0       -2.390984    2.940906    0.563434
     26          1           0       -3.297558    3.400493    0.891325
     27          6           0       -0.894295   -3.179185   -2.028920
     28          6           0       -3.077152    0.490280    0.469950
     29          6           0        3.205681   -1.604442    0.221110
     30          6           0        1.142967    2.753710   -0.343061
     31          6           0        4.456585   -2.209760    0.853959
     32          6           0        5.618474   -2.242752    0.093544
     33          6           0        4.440619   -2.729648    2.157984
     34          6           0        6.764504   -2.854030    0.602609
     35          6           0        5.618194   -3.256613    2.705022
     36          6           0        6.773501   -3.342567    1.916069
     37          6           0        1.613167    4.177742   -0.697411
     38          6           0        1.934068    4.519177   -2.027591
     39          6           0        1.720583    5.134309    0.310900
     40          6           0        2.318705    5.834612   -2.336365
     41          6           0        2.193623    6.418246    0.013734
     42          6           0        2.470857    6.776499   -1.311233
     43          6           0       -4.405301    0.739394    1.171261
     44          6           0       -5.399049    1.418899    0.478283
     45          6           0       -4.623903    0.286797    2.478980
     46          6           0       -6.650262    1.603747    1.066632
     47          6           0       -5.845746    0.557869    3.105681
     48          6           0       -6.868954    1.193975    2.388947
     49         28           0        0.096249   -0.393543   -0.424887
     50          6           0       -3.940750   -3.832176   -1.737357
     51          6           0       -5.567445   -5.539190   -2.215806
     52          9           0        3.311272   -2.683654    2.900633
     53          9           0        5.643836   -3.672265    3.990372
     54          9           0        7.895747   -3.895674    2.419549
     55          9           0        7.856609   -2.981732   -0.177629
     56          9           0        5.613209   -1.727340   -1.152818
     57          9           0        1.828602    3.601870   -3.014478
     58          9           0        2.533326    6.197380   -3.620334
     59          9           0        2.884591    8.029203   -1.599007
     60          9           0        2.392073    7.308029    1.008419
     61          9           0        1.411626    4.803019    1.581377
     62          9           0       -5.162713    1.849874   -0.778448
     63          9           0       -7.648029    2.166891    0.355340
     64          9           0       -8.065140    1.412656    2.971129
     65          9           0       -6.035018    0.216640    4.398733
     66          9           0       -3.647832   -0.366484    3.148922
     67          1           0       -6.526426   -6.010180   -2.183437
     68          8           0       -1.179594   -3.933118   -2.997738
     69          6           0       -4.481194   -6.075790   -2.839560
     70          1           0       -4.441749   -7.047384   -3.274717
     71         16           0       -3.128956   -4.953452   -2.826610
     72          1           0        1.216496   -5.127688   -1.731770
     73          7           0       -5.243697   -4.176857   -1.542346
 ---------------------------------------------------------------------
 Rotational constants (GHZ):           0.0338109           0.0257280           0.0180801
 General basis read from cards:  (5D, 7F)
 ======================================================================================================
                                       Pseudopotential Parameters
 ======================================================================================================
  Center     Atomic      Valence      Angular      Power
  Number     Number     Electrons     Momentum     of R      Exponent        Coefficient   SO-Coeffient
 ======================================================================================================
    1          6
                                   No pseudopotential on this center.
    2          6
                                   No pseudopotential on this center.
    3          6
                                   No pseudopotential on this center.
    4          6
                                   No pseudopotential on this center.
    5          6
                                   No pseudopotential on this center.
    6          6
                                   No pseudopotential on this center.
    7          6
                                   No pseudopotential on this center.
    8          6
                                   No pseudopotential on this center.
    9          6
                                   No pseudopotential on this center.
   10          6
                                   No pseudopotential on this center.
   11          6
                                   No pseudopotential on this center.
   12          6
                                   No pseudopotential on this center.
   13          1
                                   No pseudopotential on this center.
   14          1
                                   No pseudopotential on this center.
   15          1
                                   No pseudopotential on this center.
   16          7
                                   No pseudopotential on this center.
   17          7
                                   No pseudopotential on this center.
   18          7
                                   No pseudopotential on this center.
   19          7
                                   No pseudopotential on this center.
   20          6
                                   No pseudopotential on this center.
   21          1
                                   No pseudopotential on this center.
   22          6
                                   No pseudopotential on this center.
   23          1
                                   No pseudopotential on this center.
   24          6
                                   No pseudopotential on this center.
   25          6
                                   No pseudopotential on this center.
   26          1
                                   No pseudopotential on this center.
   27          6
                                   No pseudopotential on this center.
   28          6
                                   No pseudopotential on this center.
   29          6
                                   No pseudopotential on this center.
   30          6
                                   No pseudopotential on this center.
   31          6
                                   No pseudopotential on this center.
   32          6
                                   No pseudopotential on this center.
   33          6
                                   No pseudopotential on this center.
   34          6
                                   No pseudopotential on this center.
   35          6
                                   No pseudopotential on this center.
   36          6
                                   No pseudopotential on this center.
   37          6
                                   No pseudopotential on this center.
   38          6
                                   No pseudopotential on this center.
   39          6
                                   No pseudopotential on this center.
   40          6
                                   No pseudopotential on this center.
   41          6
                                   No pseudopotential on this center.
   42          6
                                   No pseudopotential on this center.
   43          6
                                   No pseudopotential on this center.
   44          6
                                   No pseudopotential on this center.
   45          6
                                   No pseudopotential on this center.
   46          6
                                   No pseudopotential on this center.
   47          6
                                   No pseudopotential on this center.
   48          6
                                   No pseudopotential on this center.
   49         28           18
                                      D and up 
                                                     1      469.9324331      -10.00000000    0.00000000
                                                     2       85.4236411      -69.40848050    0.00000000
                                                     2       21.2674984      -12.09510200    0.00000000
                                      S - D
                                                     0      162.1686097        3.00000000    0.00000000
                                                     1      176.5333232       22.02536180    0.00000000
                                                     2       68.9562010      443.01810880    0.00000000
                                                     2       13.5792838      145.56964110    0.00000000
                                      P - D
                                                     0       69.0181506        5.00000000    0.00000000
                                                     1      275.5955596        4.98828240    0.00000000
                                                     2       47.1315453      256.69458530    0.00000000
                                                     2       12.9874075       78.47544500    0.00000000
   50          6
                                   No pseudopotential on this center.
   51          6
                                   No pseudopotential on this center.
   52          9
                                   No pseudopotential on this center.
   53          9
                                   No pseudopotential on this center.
   54          9
                                   No pseudopotential on this center.
   55          9
                                   No pseudopotential on this center.
   56          9
                                   No pseudopotential on this center.
   57          9
                                   No pseudopotential on this center.
   58          9
                                   No pseudopotential on this center.
   59          9
                                   No pseudopotential on this center.
   60          9
                                   No pseudopotential on this center.
   61          9
                                   No pseudopotential on this center.
   62          9
                                   No pseudopotential on this center.
   63          9
                                   No pseudopotential on this center.
   64          9
                                   No pseudopotential on this center.
   65          9
                                   No pseudopotential on this center.
   66          9
                                   No pseudopotential on this center.
   67          1
                                   No pseudopotential on this center.
   68          8
                                   No pseudopotential on this center.
   69          6
                                   No pseudopotential on this center.
   70          1
                                   No pseudopotential on this center.
   71         16
                                   No pseudopotential on this center.
   72          1
                                   No pseudopotential on this center.
   73          7
                                   No pseudopotential on this center.
 ======================================================================================================
 There are  1270 symmetry adapted cartesian basis functions of A   symmetry.
 There are  1205 symmetry adapted basis functions of A   symmetry.
  1205 basis functions,  2155 primitive gaussians,  1270 cartesian basis functions
   234 alpha electrons      234 beta electrons
       nuclear repulsion energy     10209.6671686777 Hartrees.
 NAtoms=   73 NActive=   73 NUniq=   73 SFac= 1.00D+00 NAtFMM=   60 NAOKFM=T Big=T
 Integral buffers will be    131072 words long.
 Raffenetti 2 integral format.
 Two-electron integral symmetry is turned on.
 One-electron integrals computed using PRISM.
   1 Symmetry operations used in ECPInt.
 ECPInt:  NShTT=   61776 NPrTT=  341091 LenC2=   43349 LenP2D=  125431.
 LDataN:  DoStor=T MaxTD1= 4 Len=   56
 NBasis=  1205 RedAO= T EigKep=  1.20D-06  NBF=  1205
 NBsUse=  1190 1.00D-06 EigRej=  6.63D-07 NBFU=  1190
 ExpMin= 2.40D-02 ExpMax= 2.19D+04 ExpMxC= 3.30D+03 IAcc=3 IRadAn=         5 AccDes= 0.00D+00
 Harris functional with IExCor=  402 and IRadAn=       5 diagonalized for initial guess.
 HarFok:  IExCor=  402 AccDes= 0.00D+00 IRadAn=         5 IDoV= 1 UseB2=F ITyADJ=14
 ICtDFT=  3500011 ScaDFX=  1.000000  1.000000  1.000000  1.000000
 FoFCou: FMM=F IPFlag=           0 FMFlag=      100000 FMFlg1=        2001
         NFxFlg=           0 DoJE=T BraDBF=F KetDBF=T FulRan=T
         wScrn=  0.000000 ICntrl=       500 IOpCl=  0 I1Cent=   200000004 NGrid=           0
         NMat0=    1 NMatS0=      1 NMatT0=    0 NMatD0=    1 NMtDS0=    0 NMtDT0=    0
 Petite list used in FoFCou.
 Requested convergence on RMS density matrix=1.00D-08 within1000 cycles.
 Requested convergence on MAX density matrix=1.00D-06.
 Requested convergence on             energy=1.00D-06.
 No special actions if energy rises.
 EnCoef did     7 forward-backward iterations
 EnCoef did   100 forward-backward iterations
 Restarting incremental Fock formation.
 SCF Done:  E(RB3LYP) =  -3981.89867070     A.U. after   24 cycles
            NFock= 24  Conv=0.49D-08     -V/T= 2.0221

 **********************************************************************

            Population analysis using the SCF Density.

 **********************************************************************

 Orbital symmetries:
       Occupied  (A) (A) (A) (A) (A) (A) (A) (A) (A) (A) (A) (A)
                 (A) (A) (A) (A) (A) (A) (A) (A) (A) (A) (A) (A)
                 (A) (A) (A) (A) (A) (A) (A) (A) (A) (A) (A) (A)
                 (A) (A) (A) (A) (A) (A) (A) (A) (A) (A) (A) (A)
                 (A) (A) (A) (A) (A) (A) (A) (A) (A) (A) (A) (A)
                 (A) (A) (A) (A) (A) (A) (A) (A) (A) (A) (A) (A)
                 (A) (A) (A) (A) (A) (A) (A) (A) (A) (A) (A) (A)
                 (A) (A) (A) (A) (A) (A) (A) (A) (A) (A) (A) (A)
                 (A) (A) (A) (A) (A) (A) (A) (A) (A) (A) (A) (A)
                 (A) (A) (A) (A) (A) (A) (A) (A) (A) (A) (A) (A)
                 (A) (A) (A) (A) (A) (A) (A) (A) (A) (A) (A) (A)
                 (A) (A) (A) (A) (A) (A) (A) (A) (A) (A) (A) (A)
                 (A) (A) (A) (A) (A) (A) (A) (A) (A) (A) (A) (A)
                 (A) (A) (A) (A) (A) (A) (A) (A) (A) (A) (A) (A)
                 (A) (A) (A) (A) (A) (A) (A) (A) (A) (A) (A) (A)
                 (A) (A) (A) (A) (A) (A) (A) (A) (A) (A) (A) (A)
                 (A) (A) (A) (A) (A) (A) (A) (A) (A) (A) (A) (A)
                 (A) (A) (A) (A) (A) (A) (A) (A) (A) (A) (A) (A)
                 (A) (A) (A) (A) (A) (A) (A) (A) (A) (A) (A) (A)
                 (A) (A) (A) (A) (A) (A)
       Virtual   (A) (A) (A) (A) (A) (A) (A) (A) (A) (A) (A) (A)
                 (A) (A) (A) (A) (A) (A) (A) (A) (A) (A) (A) (A)
                 (A) (A) (A) (A) (A) (A) (A) (A) (A) (A) (A) (A)
                 (A) (A) (A) (A) (A) (A) (A) (A) (A) (A) (A) (A)
                 (A) (A) (A) (A) (A) (A) (A) (A) (A) (A) (A) (A)
                 (A) (A) (A) (A) (A) (A) (A) (A) (A) (A) (A) (A)
                 (A) (A) (A) (A) (A) (A) (A) (A) (A) (A) (A) (A)
                 (A) (A) (A) (A) (A) (A) (A) (A) (A) (A) (A) (A)
                 (A) (A) (A) (A) (A) (A) (A) (A) (A) (A) (A) (A)
                 (A) (A) (A) (A) (A) (A) (A) (A) (A) (A) (A) (A)
                 (A) (A) (A) (A) (A) (A) (A) (A) (A) (A) (A) (A)
                 (A) (A) (A) (A) (A) (A) (A) (A) (A) (A) (A) (A)
                 (A) (A) (A) (A) (A) (A) (A) (A) (A) (A) (A) (A)
                 (A) (A) (A) (A) (A) (A) (A) (A) (A) (A) (A) (A)
                 (A) (A) (A) (A) (A) (A) (A) (A) (A) (A) (A) (A)
                 (A) (A) (A) (A) (A) (A) (A) (A) (A) (A) (A) (A)
                 (A) (A) (A) (A) (A) (A) (A) (A) (A) (A) (A) (A)
                 (A) (A) (A) (A) (A) (A) (A) (A) (A) (A) (A) (A)
                 (A) (A) (A) (A) (A) (A) (A) (A) (A) (A) (A) (A)
                 (A) (A) (A) (A) (A) (A) (A) (A) (A) (A) (A) (A)
                 (A) (A) (A) (A) (A) (A) (A) (A) (A) (A) (A) (A)
                 (A) (A) (A) (A) (A) (A) (A) (A) (A) (A) (A) (A)
                 (A) (A) (A) (A) (A) (A) (A) (A) (A) (A) (A) (A)
                 (A) (A) (A) (A) (A) (A) (A) (A) (A) (A) (A) (A)
                 (A) (A) (A) (A) (A) (A) (A) (A) (A) (A) (A) (A)
                 (A) (A) (A) (A) (A) (A) (A) (A) (A) (A) (A) (A)
                 (A) (A) (A) (A) (A) (A) (A) (A) (A) (A) (A) (A)
                 (A) (A) (A) (A) (A) (A) (A) (A) (A) (A) (A) (A)
                 (A) (A) (A) (A) (A) (A) (A) (A) (A) (A) (A) (A)
                 (A) (A) (A) (A) (A) (A) (A) (A) (A) (A) (A) (A)
                 (A) (A) (A) (A) (A) (A) (A) (A) (A) (A) (A) (A)
                 (A) (A) (A) (A) (A) (A) (A) (A) (A) (A) (A) (A)
                 (A) (A) (A) (A) (A) (A) (A) (A) (A) (A) (A) (A)
                 (A) (A) (A) (A) (A) (A) (A) (A) (A) (A) (A) (A)
                 (A) (A) (A) (A) (A) (A) (A) (A) (A) (A) (A) (A)
                 (A) (A) (A) (A) (A) (A) (A) (A) (A) (A) (A) (A)
                 (A) (A) (A) (A) (A) (A) (A) (A) (A) (A) (A) (A)
                 (A) (A) (A) (A) (A) (A) (A) (A) (A) (A) (A) (A)
                 (A) (A) (A) (A) (A) (A) (A) (A) (A) (A) (A) (A)
                 (A) (A) (A) (A) (A) (A) (A) (A) (A) (A) (A) (A)
                 (A) (A) (A) (A) (A) (A) (A) (A) (A) (A) (A) (A)
                 (A) (A) (A) (A) (A) (A) (A) (A) (A) (A) (A) (A)
                 (A) (A) (A) (A) (A) (A) (A) (A) (A) (A) (A) (A)
                 (A) (A) (A) (A) (A) (A) (A) (A) (A) (A) (A) (A)
                 (A) (A) (A) (A) (A) (A) (A) (A) (A) (A) (A) (A)
                 (A) (A) (A) (A) (A) (A) (A) (A) (A) (A) (A) (A)
                 (A) (A) (A) (A) (A) (A) (A) (A) (A) (A) (A) (A)
                 (A) (A) (A) (A) (A) (A) (A) (A) (A) (A) (A) (A)
                 (A) (A) (A) (A) (A) (A) (A) (A) (A) (A) (A) (A)
                 (A) (A) (A) (A) (A) (A) (A) (A) (A) (A) (A) (A)
                 (A) (A) (A) (A) (A) (A) (A) (A) (A) (A) (A) (A)
                 (A) (A) (A) (A) (A) (A) (A) (A) (A) (A) (A) (A)
                 (A) (A) (A) (A) (A) (A) (A) (A) (A) (A) (A) (A)
                 (A) (A) (A) (A) (A) (A) (A) (A) (A) (A) (A) (A)
                 (A) (A) (A) (A) (A) (A) (A) (A) (A) (A) (A) (A)
                 (A) (A) (A) (A) (A) (A) (A) (A) (A) (A) (A) (A)
                 (A) (A) (A) (A) (A) (A) (A) (A) (A) (A) (A) (A)
                 (A) (A) (A) (A) (A) (A) (A) (A) (A) (A) (A) (A)
                 (A) (A) (A) (A) (A) (A) (A) (A) (A) (A) (A) (A)
                 (A) (A) (A) (A) (A) (A) (A) (A) (A) (A) (A) (A)
                 (A) (A) (A) (A) (A) (A) (A) (A) (A) (A) (A) (A)
                 (A) (A) (A) (A) (A) (A) (A) (A) (A) (A) (A) (A)
                 (A) (A) (A) (A) (A) (A) (A) (A) (A) (A) (A) (A)
                 (A) (A) (A) (A) (A) (A) (A) (A) (A) (A) (A) (A)
                 (A) (A) (A) (A) (A) (A) (A) (A) (A) (A) (A) (A)
                 (A) (A) (A) (A) (A) (A) (A) (A) (A) (A) (A) (A)
                 (A) (A) (A) (A) (A) (A) (A) (A) (A) (A) (A) (A)
                 (A) (A) (A) (A) (A) (A) (A) (A) (A) (A) (A) (A)
                 (A) (A) (A) (A) (A) (A) (A) (A) (A) (A) (A) (A)
                 (A) (A) (A) (A) (A) (A) (A) (A) (A) (A) (A) (A)
                 (A) (A) (A) (A) (A) (A) (A) (A) (A) (A) (A) (A)
                 (A) (A) (A) (A) (A) (A) (A) (A) (A) (A) (A) (A)
                 (A) (A) (A) (A) (A) (A) (A) (A) (A) (A) (A) (A)
                 (A) (A) (A) (A) (A) (A) (A) (A) (A) (A) (A) (A)
                 (A) (A) (A) (A) (A) (A) (A) (A) (A) (A) (A) (A)
                 (A) (A) (A) (A) (A) (A) (A) (A) (A) (A) (A) (A)
                 (A) (A) (A) (A) (A) (A) (A) (A) (A) (A) (A) (A)
                 (A) (A) (A) (A) (A) (A) (A) (A) (A) (A) (A) (A)
                 (A) (A) (A) (A) (A) (A) (A) (A) (A) (A) (A) (A)
                 (A) (A) (A) (A) (A) (A) (A) (A)
 The electronic state is 1-A.
 Alpha  occ. eigenvalues --  -88.79620 -24.70338 -24.70199 -24.69859 -24.69734
 Alpha  occ. eigenvalues --  -24.69712 -24.69631 -24.69525 -24.69254 -24.69226
 Alpha  occ. eigenvalues --  -24.68825 -24.68749 -24.68706 -24.68512 -24.68405
 Alpha  occ. eigenvalues --  -24.68324 -19.05483 -14.28059 -14.27927 -14.27049
 Alpha  occ. eigenvalues --  -14.26740 -14.24991 -10.26869 -10.26670 -10.26399
 Alpha  occ. eigenvalues --  -10.26307 -10.26210 -10.26113 -10.26076 -10.26035
 Alpha  occ. eigenvalues --  -10.25825 -10.25789 -10.25739 -10.25704 -10.25547
 Alpha  occ. eigenvalues --  -10.25544 -10.25272 -10.18996 -10.18716 -10.18564
 Alpha  occ. eigenvalues --  -10.18241 -10.17026 -10.16490 -10.16317 -10.15678
 Alpha  occ. eigenvalues --  -10.15610 -10.14136 -10.13954 -10.13568 -10.13383
 Alpha  occ. eigenvalues --  -10.13330 -10.13252 -10.13121 -10.12991 -10.12917
 Alpha  occ. eigenvalues --  -10.12670 -10.12601 -10.12436 -10.11407 -10.11238
 Alpha  occ. eigenvalues --  -10.09500 -10.09487 -10.08851  -7.86710  -5.83102
 Alpha  occ. eigenvalues --   -5.82666  -5.82329  -3.95464  -2.57251  -2.57156
 Alpha  occ. eigenvalues --   -2.51580  -1.22097  -1.21922  -1.21624  -1.21105
 Alpha  occ. eigenvalues --   -1.20953  -1.20630  -1.20529  -1.20353  -1.20080
 Alpha  occ. eigenvalues --   -1.19638  -1.19536  -1.19348  -1.19178  -1.19165
 Alpha  occ. eigenvalues --   -1.18960  -0.94490  -0.88981  -0.87975  -0.87591
 Alpha  occ. eigenvalues --   -0.86069  -0.85813  -0.85430  -0.85333  -0.82282
 Alpha  occ. eigenvalues --   -0.78103  -0.77197  -0.75806  -0.73802  -0.73449
 Alpha  occ. eigenvalues --   -0.73374  -0.72445  -0.71542  -0.71076  -0.70448
 Alpha  occ. eigenvalues --   -0.70139  -0.69452  -0.68340  -0.68091  -0.65787
 Alpha  occ. eigenvalues --   -0.64682  -0.62961  -0.62459  -0.62184  -0.61883
 Alpha  occ. eigenvalues --   -0.61659  -0.61455  -0.60961  -0.57810  -0.57702
 Alpha  occ. eigenvalues --   -0.55177  -0.54955  -0.54724  -0.54388  -0.54076
 Alpha  occ. eigenvalues --   -0.53977  -0.53504  -0.53176  -0.52980  -0.52697
 Alpha  occ. eigenvalues --   -0.51466  -0.50529  -0.50346  -0.50135  -0.49949
 Alpha  occ. eigenvalues --   -0.49890  -0.49836  -0.49401  -0.49304  -0.48660
 Alpha  occ. eigenvalues --   -0.48075  -0.47751  -0.47683  -0.47531  -0.47463
 Alpha  occ. eigenvalues --   -0.47313  -0.47213  -0.47014  -0.46876  -0.46030
 Alpha  occ. eigenvalues --   -0.45392  -0.44937  -0.44768  -0.44478  -0.44234
 Alpha  occ. eigenvalues --   -0.43968  -0.43831  -0.43364  -0.43189  -0.42957
 Alpha  occ. eigenvalues --   -0.42111  -0.42050  -0.41953  -0.41787  -0.41645
 Alpha  occ. eigenvalues --   -0.41548  -0.41051  -0.40013  -0.39973  -0.39833
 Alpha  occ. eigenvalues --   -0.39748  -0.39623  -0.39510  -0.39397  -0.39106
 Alpha  occ. eigenvalues --   -0.38403  -0.38102  -0.37582  -0.37238  -0.37066
 Alpha  occ. eigenvalues --   -0.36802  -0.36553  -0.36152  -0.35559  -0.35136
 Alpha  occ. eigenvalues --   -0.35094  -0.34648  -0.34398  -0.34156  -0.34145
 Alpha  occ. eigenvalues --   -0.33914  -0.33891  -0.33566  -0.33017  -0.32583
 Alpha  occ. eigenvalues --   -0.32139  -0.31856  -0.31356  -0.31177  -0.31058
 Alpha  occ. eigenvalues --   -0.30874  -0.30717  -0.30387  -0.29709  -0.29059
 Alpha  occ. eigenvalues --   -0.28789  -0.28535  -0.27920  -0.25607  -0.25350
 Alpha  occ. eigenvalues --   -0.24672  -0.23516  -0.23142  -0.22846  -0.22190
 Alpha  occ. eigenvalues --   -0.21943  -0.21654  -0.21637  -0.21580  -0.21388
 Alpha  occ. eigenvalues --   -0.21192  -0.21122  -0.19634  -0.18310  -0.17888
 Alpha  occ. eigenvalues --   -0.17686  -0.16854  -0.16059  -0.15709  -0.15429
 Alpha  occ. eigenvalues --   -0.14494  -0.13323  -0.11433  -0.10297
 Alpha virt. eigenvalues --   -0.00942   0.00519   0.01392   0.01502   0.01567
 Alpha virt. eigenvalues --    0.01797   0.01921   0.02048   0.02493   0.02626
 Alpha virt. eigenvalues --    0.02991   0.04112   0.04444   0.06864   0.06899
 Alpha virt. eigenvalues --    0.07046   0.07282   0.07496   0.07809   0.08104
 Alpha virt. eigenvalues --    0.08447   0.09017   0.09204   0.09332   0.09401
 Alpha virt. eigenvalues --    0.09524   0.09901   0.10252   0.10279   0.10403
 Alpha virt. eigenvalues --    0.10542   0.10871   0.11163   0.11202   0.11383
 Alpha virt. eigenvalues --    0.11408   0.11716   0.11985   0.12127   0.12263
 Alpha virt. eigenvalues --    0.12394   0.12695   0.12858   0.12957   0.13119
 Alpha virt. eigenvalues --    0.13223   0.13372   0.13583   0.14108   0.14351
 Alpha virt. eigenvalues --    0.14577   0.14733   0.14907   0.15018   0.15159
 Alpha virt. eigenvalues --    0.15478   0.15515   0.15671   0.15754   0.15969
 Alpha virt. eigenvalues --    0.16159   0.16388   0.16406   0.16522   0.16768
 Alpha virt. eigenvalues --    0.16975   0.17195   0.17362   0.17429   0.17507
 Alpha virt. eigenvalues --    0.17712   0.17875   0.17994   0.18096   0.18186
 Alpha virt. eigenvalues --    0.18291   0.18396   0.18556   0.18654   0.18896
 Alpha virt. eigenvalues --    0.18972   0.19098   0.19177   0.19278   0.19708
 Alpha virt. eigenvalues --    0.19817   0.20020   0.20217   0.20493   0.20606
 Alpha virt. eigenvalues --    0.20740   0.20958   0.20982   0.21215   0.21308
 Alpha virt. eigenvalues --    0.21516   0.21636   0.21733   0.21831   0.21918
 Alpha virt. eigenvalues --    0.21966   0.22284   0.22414   0.22612   0.22658
 Alpha virt. eigenvalues --    0.22715   0.22849   0.22948   0.23165   0.23230
 Alpha virt. eigenvalues --    0.23415   0.23581   0.23661   0.24004   0.24109
 Alpha virt. eigenvalues --    0.24260   0.24305   0.24500   0.24883   0.24980
 Alpha virt. eigenvalues --    0.25010   0.25138   0.25308   0.25503   0.25646
 Alpha virt. eigenvalues --    0.25879   0.25988   0.26058   0.26368   0.26513
 Alpha virt. eigenvalues --    0.26621   0.26828   0.26964   0.27161   0.27205
 Alpha virt. eigenvalues --    0.27375   0.27504   0.27678   0.27944   0.28194
 Alpha virt. eigenvalues --    0.28372   0.28518   0.28520   0.28776   0.29141
 Alpha virt. eigenvalues --    0.29251   0.29348   0.29457   0.29554   0.29930
 Alpha virt. eigenvalues --    0.30121   0.30156   0.30550   0.30619   0.30860
 Alpha virt. eigenvalues --    0.30920   0.30980   0.31291   0.31417   0.31525
 Alpha virt. eigenvalues --    0.31798   0.31849   0.31919   0.32196   0.32343
 Alpha virt. eigenvalues --    0.32551   0.32717   0.33005   0.33134   0.33436
 Alpha virt. eigenvalues --    0.33721   0.33905   0.33994   0.34113   0.34185
 Alpha virt. eigenvalues --    0.34272   0.34461   0.34822   0.34934   0.35026
 Alpha virt. eigenvalues --    0.35290   0.35488   0.35663   0.35767   0.35849
 Alpha virt. eigenvalues --    0.35915   0.36115   0.36216   0.36263   0.36434
 Alpha virt. eigenvalues --    0.36571   0.36641   0.36765   0.36983   0.37002
 Alpha virt. eigenvalues --    0.37181   0.37228   0.37474   0.37729   0.37764
 Alpha virt. eigenvalues --    0.37900   0.38234   0.38397   0.38508   0.38721
 Alpha virt. eigenvalues --    0.38779   0.38945   0.39098   0.39207   0.39269
 Alpha virt. eigenvalues --    0.39402   0.39820   0.39909   0.40141   0.40317
 Alpha virt. eigenvalues --    0.40451   0.40596   0.40692   0.40975   0.41101
 Alpha virt. eigenvalues --    0.41171   0.41387   0.41537   0.41572   0.41693
 Alpha virt. eigenvalues --    0.41805   0.42017   0.42160   0.42252   0.42424
 Alpha virt. eigenvalues --    0.42619   0.42782   0.42917   0.43066   0.43176
 Alpha virt. eigenvalues --    0.43312   0.43417   0.43527   0.43744   0.43811
 Alpha virt. eigenvalues --    0.43946   0.44027   0.44150   0.44376   0.44458
 Alpha virt. eigenvalues --    0.44607   0.44733   0.44762   0.44853   0.45086
 Alpha virt. eigenvalues --    0.45242   0.45274   0.45576   0.45674   0.45855
 Alpha virt. eigenvalues --    0.46042   0.46252   0.46341   0.46510   0.46645
 Alpha virt. eigenvalues --    0.46767   0.46910   0.47089   0.47290   0.47441
 Alpha virt. eigenvalues --    0.47623   0.47634   0.47929   0.48058   0.48369
 Alpha virt. eigenvalues --    0.48533   0.48695   0.48988   0.49247   0.49551
 Alpha virt. eigenvalues --    0.49635   0.49905   0.50413   0.50569   0.50628
 Alpha virt. eigenvalues --    0.50710   0.51099   0.51475   0.51490   0.52016
 Alpha virt. eigenvalues --    0.52152   0.52272   0.52339   0.52882   0.52963
 Alpha virt. eigenvalues --    0.53202   0.53578   0.53602   0.53980   0.54290
 Alpha virt. eigenvalues --    0.54303   0.54473   0.54596   0.55132   0.55380
 Alpha virt. eigenvalues --    0.55647   0.55913   0.56450   0.56573   0.57111
 Alpha virt. eigenvalues --    0.57355   0.57603   0.57762   0.57933   0.58158
 Alpha virt. eigenvalues --    0.58327   0.58412   0.58929   0.58980   0.59149
 Alpha virt. eigenvalues --    0.59201   0.60226   0.60931   0.61564   0.61633
 Alpha virt. eigenvalues --    0.61941   0.62157   0.62202   0.62687   0.63212
 Alpha virt. eigenvalues --    0.63525   0.64183   0.64465   0.64662   0.64898
 Alpha virt. eigenvalues --    0.65186   0.65286   0.66022   0.66419   0.66822
 Alpha virt. eigenvalues --    0.67213   0.67662   0.67967   0.68279   0.68909
 Alpha virt. eigenvalues --    0.69348   0.69712   0.70097   0.70598   0.70756
 Alpha virt. eigenvalues --    0.71308   0.71710   0.72192   0.72735   0.74381
 Alpha virt. eigenvalues --    0.74923   0.76269   0.76413   0.76746   0.77209
 Alpha virt. eigenvalues --    0.77317   0.77494   0.77753   0.77954   0.78203
 Alpha virt. eigenvalues --    0.78499   0.78927   0.79099   0.79735   0.79985
 Alpha virt. eigenvalues --    0.80080   0.80780   0.80981   0.81293   0.82220
 Alpha virt. eigenvalues --    0.82706   0.83073   0.83357   0.83757   0.83904
 Alpha virt. eigenvalues --    0.84503   0.85193   0.86240   0.86355   0.86716
 Alpha virt. eigenvalues --    0.86901   0.87114   0.87792   0.87870   0.88066
 Alpha virt. eigenvalues --    0.88318   0.88558   0.88851   0.89118   0.89576
 Alpha virt. eigenvalues --    0.89794   0.90375   0.90520   0.90746   0.90816
 Alpha virt. eigenvalues --    0.91913   0.92189   0.92308   0.92383   0.93532
 Alpha virt. eigenvalues --    0.93582   0.93765   0.94044   0.94628   0.95071
 Alpha virt. eigenvalues --    0.95663   0.96096   0.96428   0.96580   0.97147
[...]
 Alpha virt. eigenvalues --    0.47060   0.47415   0.47488   0.47687   0.47781
 Alpha virt. eigenvalues --    0.48031   0.48240   0.48353   0.48618   0.48691
 Alpha virt. eigenvalues --    0.48748   0.49116   0.49374   0.49392   0.49929
 Alpha virt. eigenvalues --    0.50124   0.50304   0.50486   0.50655   0.50931
 Alpha virt. eigenvalues --    0.50998   0.51088   0.51736   0.51894   0.52200
 Alpha virt. eigenvalues --    0.52460   0.52666   0.53018   0.53277   0.53533
 Alpha virt. eigenvalues --    0.53704   0.54008   0.54187   0.54260   0.54655
 Alpha virt. eigenvalues --    0.54749   0.54854   0.55127   0.55536   0.55652
 Alpha virt. eigenvalues --    0.56489   0.56813   0.57024   0.57665   0.57798
 Alpha virt. eigenvalues --    0.58094   0.58118   0.58260   0.58488   0.58703
 Alpha virt. eigenvalues --    0.58801   0.59187   0.59732   0.59814   0.60017
 Alpha virt. eigenvalues --    0.60732   0.61132   0.61280   0.61537   0.61947
 Alpha virt. eigenvalues --    0.62340   0.62625   0.63016   0.63226   0.63535
 Alpha virt. eigenvalues --    0.63764   0.64343   0.64752   0.64897   0.65586
 Alpha virt. eigenvalues --    0.65955   0.66094   0.66507   0.67239   0.67564
 Alpha virt. eigenvalues --    0.67818   0.68201   0.68452   0.69047   0.69291
 Alpha virt. eigenvalues --    0.70078   0.70448   0.70820   0.71491   0.72220
 Alpha virt. eigenvalues --    0.72359   0.73057   0.73591   0.74339   0.75620
 Alpha virt. eigenvalues --    0.75646   0.76149   0.76320   0.76408   0.77016
 Alpha virt. eigenvalues --    0.77352   0.77607   0.77943   0.78062   0.78384
 Alpha virt. eigenvalues --    0.78590   0.78833   0.79119   0.79571   0.80097
 Alpha virt. eigenvalues --    0.80874   0.81221   0.81503   0.81866   0.83143
 Alpha virt. eigenvalues --    0.83175   0.83456   0.83635   0.84051   0.84652
 Alpha virt. eigenvalues --    0.85269   0.86027   0.86442   0.86633   0.87282
 Alpha virt. eigenvalues --    0.87514   0.87724   0.87938   0.88347   0.88751
 Alpha virt. eigenvalues --    0.89038   0.89177   0.89345   0.89873   0.90273
 Alpha virt. eigenvalues --    0.90581   0.90657   0.90939   0.91150   0.91436
 Alpha virt. eigenvalues --    0.91795   0.91960   0.92575   0.92864   0.93287
 Alpha virt. eigenvalues --    0.93745   0.94330   0.94692   0.94877   0.95080
 Alpha virt. eigenvalues --    0.95719   0.95928   0.96212   0.96363   0.97217
 Alpha virt. eigenvalues --    0.97637   0.97999   0.98405   0.98716   0.98856
 Alpha virt. eigenvalues --    0.99104   0.99292   0.99681   0.99941   1.00378
 Alpha virt. eigenvalues --    1.00559   1.00909   1.01086   1.01234   1.01453
 Alpha virt. eigenvalues --    1.01795   1.02012   1.02506   1.02746   1.02961
 Alpha virt. eigenvalues --    1.03505   1.03581   1.04097   1.04897   1.05110
 Alpha virt. eigenvalues --    1.05280   1.05996   1.06193   1.06776   1.07198
 Alpha virt. eigenvalues --    1.07578   1.08291   1.08376   1.10594   1.10850
 Alpha virt. eigenvalues --    1.11267   1.12101   1.12307   1.12998   1.13354
 Alpha virt. eigenvalues --    1.14563   1.15031   1.15632   1.16306   1.16610
 Alpha virt. eigenvalues --    1.17368   1.17542   1.17586   1.18306   1.18511
 Alpha virt. eigenvalues --    1.19712   1.20043   1.20116   1.20340   1.21304
 Alpha virt. eigenvalues --    1.21418   1.21765   1.21843   1.22151   1.22259
 Alpha virt. eigenvalues --    1.22970   1.23052   1.23104   1.23427   1.23866
 Alpha virt. eigenvalues --    1.24004   1.24047   1.24503   1.24861   1.25430
 Alpha virt. eigenvalues --    1.25483   1.26623   1.27120   1.27310   1.27727
 Alpha virt. eigenvalues --    1.27778   1.28543   1.28839   1.29124   1.29392
 Alpha virt. eigenvalues --    1.29475   1.30406   1.30597   1.30728   1.31283
 Alpha virt. eigenvalues --    1.31524   1.32144   1.32775   1.33264   1.34009
 Alpha virt. eigenvalues --    1.34153   1.34178   1.34403   1.34773   1.35005
 Alpha virt. eigenvalues --    1.35365   1.35687   1.35947   1.36370   1.36509
 Alpha virt. eigenvalues --    1.36666   1.36797   1.36936   1.37426   1.37709
 Alpha virt. eigenvalues --    1.37955   1.38234   1.38730   1.38802   1.38952
 Alpha virt. eigenvalues --    1.39172   1.39419   1.39518   1.40081   1.40350
 Alpha virt. eigenvalues --    1.40604   1.41267   1.41666   1.42114   1.42468
 Alpha virt. eigenvalues --    1.43764   1.43931   1.44484   1.44832   1.45154
 Alpha virt. eigenvalues --    1.45245   1.46182   1.46373   1.46784   1.47036
 Alpha virt. eigenvalues --    1.47412   1.47903   1.48321   1.49183   1.49635
 Alpha virt. eigenvalues --    1.49709   1.50370   1.50749   1.51037   1.51752
 Alpha virt. eigenvalues --    1.51803   1.52488   1.52793   1.53107   1.53566
 Alpha virt. eigenvalues --    1.53766   1.54604   1.54809   1.55688   1.56342
 Alpha virt. eigenvalues --    1.57500   1.57728   1.58070   1.59246   1.60145
 Alpha virt. eigenvalues --    1.60509   1.61691   1.61989   1.63435   1.64541
 Alpha virt. eigenvalues --    1.65200   1.65407   1.65561   1.65769   1.66160
 Alpha virt. eigenvalues --    1.66355   1.66605   1.66746   1.66993   1.67152
 Alpha virt. eigenvalues --    1.67433   1.67636   1.67887   1.68051   1.68397
 Alpha virt. eigenvalues --    1.68703   1.68858   1.69051   1.69408   1.70018
 Alpha virt. eigenvalues --    1.70086   1.70515   1.70857   1.71232   1.71657
 Alpha virt. eigenvalues --    1.71820   1.72508   1.72869   1.73146   1.73351
 Alpha virt. eigenvalues --    1.73515   1.73799   1.73870   1.73960   1.74616
 Alpha virt. eigenvalues --    1.74756   1.75655   1.75797   1.76036   1.76439
 Alpha virt. eigenvalues --    1.76671   1.76850   1.77217   1.77310   1.77551
 Alpha virt. eigenvalues --    1.77758   1.77916   1.78162   1.78400   1.78575
 Alpha virt. eigenvalues --    1.78958   1.78990   1.79212   1.79605   1.79805
 Alpha virt. eigenvalues --    1.80419   1.80552   1.81107   1.81626   1.81868
 Alpha virt. eigenvalues --    1.81908   1.82382   1.82426   1.82954   1.83065
 Alpha virt. eigenvalues --    1.83253   1.83544   1.83760   1.83991   1.84027
 Alpha virt. eigenvalues --    1.84292   1.84421   1.84547   1.84718   1.84973
 Alpha virt. eigenvalues --    1.85138   1.85405   1.85721   1.85878   1.86111
 Alpha virt. eigenvalues --    1.86242   1.86441   1.86588   1.86931   1.87142
 Alpha virt. eigenvalues --    1.87182   1.87831   1.87906   1.88207   1.88535
 Alpha virt. eigenvalues --    1.88640   1.89086   1.89217   1.89333   1.89704
 Alpha virt. eigenvalues --    1.89833   1.90395   1.90435   1.90925   1.91156
 Alpha virt. eigenvalues --    1.91491   1.91594   1.92192   1.92266   1.92417
 Alpha virt. eigenvalues --    1.92672   1.93411   1.93658   1.93799   1.93950
 Alpha virt. eigenvalues --    1.94255   1.94278   1.94461   1.94985   1.95179
 Alpha virt. eigenvalues --    1.95381   1.95464   1.95946   1.96464   1.96818
 Alpha virt. eigenvalues --    1.97312   1.97767   1.97963   1.98203   1.98668
 Alpha virt. eigenvalues --    1.98923   1.99296   1.99638   1.99918   1.99956
 Alpha virt. eigenvalues --    2.00528   2.01613   2.01808   2.02253   2.02510
 Alpha virt. eigenvalues --    2.03266   2.03781   2.04330   2.04368   2.04692
 Alpha virt. eigenvalues --    2.05666   2.06187   2.06580   2.06770   2.07446
 Alpha virt. eigenvalues --    2.07698   2.07899   2.08290   2.08858   2.09368
 Alpha virt. eigenvalues --    2.09735   2.09887   2.10788   2.10920   2.11691
 Alpha virt. eigenvalues --    2.12464   2.13867   2.14046   2.14768   2.15317
 Alpha virt. eigenvalues --    2.15699   2.15981   2.16618   2.17164   2.17302
 Alpha virt. eigenvalues --    2.18458   2.18866   2.19156   2.19847   2.20273
 Alpha virt. eigenvalues --    2.20891   2.21003   2.21091   2.22016   2.22529
 Alpha virt. eigenvalues --    2.23070   2.23442   2.23559   2.24923   2.26300
 Alpha virt. eigenvalues --    2.26900   2.27151   2.27209   2.27323   2.27610
 Alpha virt. eigenvalues --    2.27781   2.28107   2.28155   2.28512   2.28720
 Alpha virt. eigenvalues --    2.29000   2.29230   2.29492   2.29623   2.29654
 Alpha virt. eigenvalues --    2.29952   2.30040   2.30270   2.30386   2.31584
 Alpha virt. eigenvalues --    2.32163   2.32822   2.33194   2.33508   2.33850
 Alpha virt. eigenvalues --    2.34584   2.35179   2.35621   2.36183   2.36366
 Alpha virt. eigenvalues --    2.36944   2.37154   2.38354   2.38542   2.38628
 Alpha virt. eigenvalues --    2.38743   2.39024   2.39417   2.39772   2.40007
 Alpha virt. eigenvalues --    2.40844   2.40942   2.41387   2.41761   2.41933
 Alpha virt. eigenvalues --    2.42359   2.42761   2.43322   2.43755   2.43933
 Alpha virt. eigenvalues --    2.44741   2.45265   2.45579   2.46107   2.46510
 Alpha virt. eigenvalues --    2.46763   2.47136   2.47316   2.47817   2.48267
 Alpha virt. eigenvalues --    2.48664   2.49465   2.49838   2.49953   2.50666
 Alpha virt. eigenvalues --    2.51564   2.51621   2.53533   2.54555   2.54872
 Alpha virt. eigenvalues --    2.55864   2.56196   2.56599   2.56775   2.57542
 Alpha virt. eigenvalues --    2.58090   2.58281   2.58849   2.59459   2.59745
 Alpha virt. eigenvalues --    2.59779   2.60141   2.60369   2.60524   2.60656
 Alpha virt. eigenvalues --    2.60932   2.61601   2.62130   2.62315   2.63036
 Alpha virt. eigenvalues --    2.63234   2.63545   2.64138   2.64354   2.65158
 Alpha virt. eigenvalues --    2.65570   2.66337   2.66716   2.66841   2.67509
 Alpha virt. eigenvalues --    2.67855   2.68288   2.69507   2.69538   2.70576
 Alpha virt. eigenvalues --    2.70926   2.71959   2.72508   2.73171   2.73602
 Alpha virt. eigenvalues --    2.73738   2.74471   2.75055   2.76004   2.77605
 Alpha virt. eigenvalues --    2.77921   2.78229   2.78442   2.79150   2.79333
 Alpha virt. eigenvalues --    2.79701   2.81795   2.82306   2.82750   2.83092
 Alpha virt. eigenvalues --    2.83628   2.84193   2.85064   2.85813   2.86806
 Alpha virt. eigenvalues --    2.90544   2.91448   2.92960   2.93260   2.94317
 Alpha virt. eigenvalues --    2.96181   2.97042   2.97796   2.98429   2.99694
 Alpha virt. eigenvalues --    3.00359   3.01266   3.03620   3.04563   3.05192
 Alpha virt. eigenvalues --    3.05797   3.05888   3.06327   3.06855   3.09766
 Alpha virt. eigenvalues --    3.10651   3.11923   3.12114   3.12459   3.12732
 Alpha virt. eigenvalues --    3.13062   3.13727   3.14847   3.17404   3.19005
 Alpha virt. eigenvalues --    3.20132   3.21278   3.21746   3.22008   3.22180
 Alpha virt. eigenvalues --    3.22297   3.22913   3.23466   3.23621   3.25725
 Alpha virt. eigenvalues --    3.26456   3.28400   3.28722   3.29256   3.29441
 Alpha virt. eigenvalues --    3.29588   3.30391   3.31719   3.35739   3.36933
 Alpha virt. eigenvalues --    3.37071   3.40202   3.40366   3.40825   3.41036
 Alpha virt. eigenvalues --    3.42228   3.42303   3.42831   3.45708   3.46981
 Alpha virt. eigenvalues --    3.47051   3.47546   3.49397   3.50899   3.52068
 Alpha virt. eigenvalues --    3.54846   3.72465   3.72875   3.73423   3.74178
 Alpha virt. eigenvalues --    3.76609   3.86997   3.88418   3.89539  46.11958
          Condensed to atoms (all electrons):
 Mulliken charges:
               1
     1  C    0.025356
     2  C    0.252803
     3  C   -0.110103
     4  C    0.222043
     5  C   -0.037989
     6  C   -0.236449
     7  C   -0.122908
     8  C    0.196846
     9  C   -0.155792
    10  C    0.000372
    11  C   -0.234407
    12  C    0.262438
    13  H    0.143384
    14  H    0.115470
    15  H    0.116381
    16  N    0.411820
    17  N    0.517456
    18  N    0.345678
    19  N    0.290463
    20  C   -0.168151
    21  H    0.114488
    22  C   -0.061556
    23  H    0.107602
    24  C    0.208084
    25  C   -0.044381
    26  H    0.118505
    27  C    0.087086
    28  C    0.234138
    29  C    0.189100
    30  C    0.058268
    31  C   -0.669193
    32  C    0.055524
    33  C    0.220751
    34  C    0.275103
    35  C    0.317877
    36  C    0.485662
    37  C   -0.660045
    38  C    0.173766
    39  C    0.031448
    40  C    0.327020
    41  C    0.284029
    42  C    0.489418
    43  C   -0.675999
    44  C    0.071068
    45  C    0.130897
    46  C    0.324272
    47  C    0.386242
    48  C    0.468285
    49  Ni  -0.518753
    50  C   -0.411388
    51  C    0.017942
    52  F   -0.281233
    53  F   -0.354022
    54  F   -0.350484
    55  F   -0.352073
    56  F   -0.277228
    57  F   -0.279393
    58  F   -0.355738
    59  F   -0.351683
    60  F   -0.353805
    61  F   -0.277818
    62  F   -0.273839
    63  F   -0.353141
    64  F   -0.352015
    65  F   -0.355904
    66  F   -0.277767
    67  H    0.112375
    68  O   -0.565819
    69  C   -0.243580
    70  H    0.140226
    71  S    0.429854
    72  H    0.140567
    73  N   -0.137454
 Sum of Mulliken charges =  -1.00000
 Mulliken charges with hydrogens summed into heavy atoms:
               1
     1  C    0.025356
     2  C    0.252803
     3  C    0.006278
     4  C    0.222043
     5  C   -0.037989
     6  C   -0.095882
     7  C   -0.122908
     8  C    0.196846
     9  C   -0.040323
    10  C    0.000372
    11  C   -0.091023
    12  C    0.262438
    16  N    0.411820
    17  N    0.517456
    18  N    0.345678
    19  N    0.290463
    20  C   -0.053663
    22  C    0.046046
    24  C    0.208084
    25  C    0.074124
    27  C    0.087086
    28  C    0.234138
    29  C    0.189100
    30  C    0.058268
    31  C   -0.669193
    32  C    0.055524
    33  C    0.220751
    34  C    0.275103
    35  C    0.317877
    36  C    0.485662
    37  C   -0.660045
    38  C    0.173766
    39  C    0.031448
    40  C    0.327020
    41  C    0.284029
    42  C    0.489418
    43  C   -0.675999
    44  C    0.071068
    45  C    0.130897
    46  C    0.324272
    47  C    0.386242
    48  C    0.468285
    49  Ni  -0.518753
    50  C   -0.411388
    51  C    0.130317
    52  F   -0.281233
    53  F   -0.354022
    54  F   -0.350484
    55  F   -0.352073
    56  F   -0.277228
    57  F   -0.279393
    58  F   -0.355738
    59  F   -0.351683
    60  F   -0.353805
    61  F   -0.277818
    62  F   -0.273839
    63  F   -0.353141
    64  F   -0.352015
    65  F   -0.355904
    66  F   -0.277767
    68  O   -0.565819
    69  C   -0.103354
    71  S    0.429854
    73  N   -0.137454
 Electronic spatial extent (au):  <R**2>=          57419.1898
 Charge=             -1.0000 electrons
 Dipole moment (field-independent basis, Debye):
    X=              3.0537    Y=              5.1609    Z=              1.8503  Tot=              6.2757
 Quadrupole moment (field-independent basis, Debye-Ang):
   XX=           -457.2169   YY=           -436.7417   ZZ=           -408.2481
   XY=             -7.6028   XZ=              0.8684   YZ=             -4.5288
 Traceless Quadrupole moment (field-independent basis, Debye-Ang):
   XX=            -23.1480   YY=             -2.6728   ZZ=             25.8208
   XY=             -7.6028   XZ=              0.8684   YZ=             -4.5288
 Octapole moment (field-independent basis, Debye-Ang**2):
  XXX=            163.3266  YYY=             -7.9491  ZZZ=             17.6798  XYY=            -63.1369
  XXY=            121.4589  XXZ=            -32.1055  XZZ=             16.6073  YZZ=             37.0200
  YYZ=             60.2694  XYZ=             49.4211
 Hexadecapole moment (field-independent basis, Debye-Ang**3):
 XXXX=         -44640.5536 YYYY=         -29980.1245 ZZZZ=          -5179.2209 XXXY=           1264.1836
 XXXZ=             45.1495 YYYX=          -1326.3495 YYYZ=            -87.2863 ZZZX=            -63.6705
 ZZZY=           -120.1384 XXYY=         -12000.4486 XXZZ=          -8218.2496 YYZZ=          -5968.6568
 XXYZ=            130.8707 YYXZ=            -29.6626 ZZXY=            -79.2358
 N-N= 1.016089167733D+04 E-N=-2.973334462121D+04  KE= 3.896592750695D+03
 Unable to Open any file for archive entry.
 1\1\GINC-CCNN781\FOpt\RB3LYP\GenECP\C41H9F15N5Ni1O1S1(1-)\CPI\26-Oct-2
 021\0\\# opt b3lyp/genecp geom=connectivity scf=maxcyc=1000\\title\\-1
 ,1\C,-1.9371839136,-2.8336506634,0.4933844346\C,0.7981837526,1.8560296
 509,3.0448145662\C,0.8400145423,1.5069429995,5.2715185313\C,0.11046922
 6,0.4606854527,4.6028561674\C,-0.8516606973,-1.7977057413,4.5121260548
 \C,-1.3001050628,-3.948819526,4.0295177002\C,-1.2278565729,-3.16631368
 43,2.8472289559\C,0.1439172283,2.2115837671,0.7124484551\C,-0.01753954
 15,3.0612155189,-0.4471416167\C,-2.3537578978,-0.9941764971,-0.6291087
 895\C,-2.9986089413,-2.0429376188,-1.3216786268\C,-1.359755195,1.25704
 92356,-0.5824331166\H,-3.5710726417,-1.9614711991,-2.2324753523\H,0.51
 17911077,3.9871378848,-0.6227344862\H,1.0031693765,1.5722381847,6.3383
 254821\N,-0.9663628134,-1.8569112116,3.1362285145\N,-1.730812321,-1.47
 86194126,0.5055778307\N,0.0887767465,0.6987479975,3.235285025\N,-0.659
 1294583,1.1048535908,0.6053707796\C,1.3014355962,2.3488942537,4.305845
 6244\H,1.8973001312,3.2415509177,4.435034108\C,-1.0936111655,-3.086132
 3528,5.0814693818\H,-1.0753850967,-3.3197041323,6.1372089178\C,-2.7227
 332399,-3.2247571104,-0.6463703677\C,-0.9792417071,2.4930251821,-1.222
 3457364\H,-1.3754613198,2.8587930643,-2.1593373532\C,-1.4974249203,-3.
 725738777,1.5402866428\C,-2.2171181274,0.3195330527,-1.1252939249\C,-0
 .3905656809,-0.6739495512,5.2194194528\C,0.9111436082,2.5455118093,1.8
 315959345\C,-0.3384389358,-0.7629156869,6.7112747655\C,0.8067922945,-1
 .1886080761,7.3937933316\C,-1.4489668245,-0.4372923766,7.498339266\C,0
 .8539630347,-1.2838383983,8.7838226929\C,-1.4285529093,-0.5246704912,8
 .8895181036\C,-0.2702253685,-0.9500157161,9.5342449049\C,1.7733429773,
 3.7630323734,1.7825078709\C,3.1535565287,3.671318133,1.5597299886\C,1.
 2619120606,5.0546399546,1.9643913471\C,3.9819792641,4.791852255,1.5165
 594046\C,2.0665462907,6.1921669953,1.9229552956\C,3.4340518241,6.05872
 85168,1.6979215278\C,-2.9602443019,0.6662422801,-2.3760333645\C,-2.399
 8400561,0.4995005244,-3.647389524\C,-4.2689161421,1.1596704164,-2.3305
 037202\C,-3.0950429845,0.8101306765,-4.8148828696\C,-4.9867014672,1.47
 67849021,-3.4825413205\C,-4.395533852,1.2999622678,-4.7304674102\Ni,-0
 .8081806455,-0.3853592663,1.8686318238\C,-3.2551359421,-4.5016623443,-
 1.1236037824\C,-4.497385125,-5.7824201149,-2.4617956833\F,-2.585551820
 5,-0.0185780379,6.9190471614\F,-2.5135039514,-0.1990345239,9.614066323
 4\F,-0.2368487953,-1.0366297586,10.8740852221\F,1.9732311563,-1.694371
 9026,9.4064022667\F,1.9137649504,-1.5240334087,6.7112084499\F,3.727010
 2588,2.4712516537,1.3741537051\F,5.3026427612,4.662590621,1.2974036703
 \F,4.2205495533,7.1468188976,1.6569476954\F,1.5372024184,7.4159156426,
 2.1031415592\F,-0.0497195267,5.2338560165,2.195783852\F,-1.1482605959,
 0.0291327866,-3.7763020771\F,-2.5226419323,0.6425315906,-6.0202406233\
 F,-5.075064889,1.6049764288,-5.8480223589\F,-6.2410337382,1.9542885277
 ,-3.4005034842\F,-4.8762537193,1.3488872696,-1.1477966402\H,-5.2212061
 872,-5.9211221557,-3.2581524848\O,-1.4567805349,-4.9647457482,1.363945
 2167\C,-3.8979375861,-6.7866565473,-1.7497465425\H,-4.0405047913,-7.85
 48971923,-1.8467111975\S,-2.8204303497,-6.1206673555,-0.5668824742\H,-
 1.4992280646,-5.0103344084,4.0423928521\N,-4.1343426875,-4.5128564451,
 -2.1118068195\\Version=ES64L-G16RevC.01\State=1-A\HF=-3982.0349138\RMS
 D=5.330e-09\RMSF=3.319e-06\Dipole=0.6164175,2.2961525,0.6662172\Quadru
 pole=10.4552796,-2.0534596,-8.4018201,-9.415078,-13.5911217,-3.5515074
 \PG=C01 [X(C41H9F15N5Ni1O1S1)]\\@
 The archive entry for this job was punched.


 IT IS THE GODS' CUSTOM TO BRING LOW ALL THINGS OF SURPASSING GREATNESS.
     -- HERODOTUS
 IT IS THE LOFTY PINE THAT BY THE STORM IS OFTENER TOSSED;
 TOWERS FALL WITH HEAVIER CRASH WHICH HIGHER SOAR.
     -- HORACE
 THE BIGGER THEY COME, THE HARDER THEY FALL.
     -- BOB FITZSIMONS HEAVYWEIGHT CHAMPION, 1897-1899
 Job cpu time:      12 days  4 hours 52 minutes 47.8 seconds.
 Elapsed time:       0 days 18 hours 19 minutes 37.7 seconds.
 File lengths (MBytes):  RWF=    854 Int=      0 D2E=      0 Chk=    105 Scr=      1
 Normal termination of Gaussian 16 at Tue Oct 26 10:00:35 2021.
