 Entering Gaussian System, Link 0=/local/apl/lx/g16c01/g16/._.g16
 Initial command:
 /local/apl/lx/g16c01/g16/l1.exe "/work/users/cpi/5188787.cccms1/Gau-226442.inp" -scrdir="/work/users/cpi/5188787.cccms1/"
 Default CPUs for threads: 0,1,2,3,4,5,6,7,8,9,10,11,12,13,14,15,16,17
 Default is to use a total of  18 processors:
                               18 via shared-memory
                                1 via Linda
 Entering Link 1 = /local/apl/lx/g16c01/g16/l1.exe PID=    226443.
  
 Copyright (c) 1988-2019, Gaussian, Inc.  All Rights Reserved.
  
 This is part of the Gaussian(R) 16 program.  It is based on
 the Gaussian(R) 09 system (copyright 2009, Gaussian, Inc.),
 the Gaussian(R) 03 system (copyright 2003, Gaussian, Inc.),
 the Gaussian(R) 98 system (copyright 1998, Gaussian, Inc.),
 the Gaussian(R) 94 system (copyright 1995, Gaussian, Inc.),
 the Gaussian 92(TM) system (copyright 1992, Gaussian, Inc.),
 the Gaussian 90(TM) system (copyright 1990, Gaussian, Inc.),
 the Gaussian 88(TM) system (copyright 1988, Gaussian, Inc.),
 the Gaussian 86(TM) system (copyright 1986, Carnegie Mellon
 University), and the Gaussian 82(TM) system (copyright 1983,
 Carnegie Mellon University). Gaussian is a federally registered
 trademark of Gaussian, Inc.
  
 This software contains proprietary and confidential information,
 including trade secrets, belonging to Gaussian, Inc.
  
 This software is provided under written license and may be
 used, copied, transmitted, or stored only in accord with that
 written license.
  
 The following legend is applicable only to US Government
 contracts under FAR:
  
                    RESTRICTED RIGHTS LEGEND
  
 Use, reproduction and disclosure by the US Government is
 subject to restrictions as set forth in subparagraphs (a)
 and (c) of the Commercial Computer Software - Restricted
 Rights clause in FAR 52.227-19.
  
 Gaussian, Inc.
 340 Quinnipiac St., Bldg. 40, Wallingford CT 06492
  
  
 ---------------------------------------------------------------
 Warning -- This program may not be used in any manner that
 competes with the business of Gaussian, Inc. or will provide
 assistance to any competitor of Gaussian, Inc.  The licensee
 of this program is prohibited from giving any competitor of
 Gaussian, Inc. access to this program.  By using this program,
 the user acknowledges that Gaussian, Inc. is engaged in the
 business of creating and licensing software in the field of
 computational chemistry and represents and warrants to the
 licensee that it is not a competitor of Gaussian, Inc. and that
 it will not use this program in any manner prohibited above.
 ---------------------------------------------------------------
  

 Cite this work as:
 Gaussian 16, Revision C.01,
 M. J. Frisch, G. W. Trucks, H. B. Schlegel, G. E. Scuseria, 
 M. A. Robb, J. R. Cheeseman, G. Scalmani, V. Barone, 
 G. A. Petersson, H. Nakatsuji, X. Li, M. Caricato, A. V. Marenich, 
 J. Bloino, B. G. Janesko, R. Gomperts, B. Mennucci, H. P. Hratchian, 
 J. V. Ortiz, A. F. Izmaylov, J. L. Sonnenberg, D. Williams-Young, 
 F. Ding, F. Lipparini, F. Egidi, J. Goings, B. Peng, A. Petrone, 
 T. Henderson, D. Ranasinghe, V. G. Zakrzewski, J. Gao, N. Rega, 
 G. Zheng, W. Liang, M. Hada, M. Ehara, K. Toyota, R. Fukuda, 
 J. Hasegawa, M. Ishida, T. Nakajima, Y. Honda, O. Kitao, H. Nakai, 
 T. Vreven, K. Throssell, J. A. Montgomery, Jr., J. E. Peralta, 
 F. Ogliaro, M. J. Bearpark, J. J. Heyd, E. N. Brothers, K. N. Kudin, 
 V. N. Staroverov, T. A. Keith, R. Kobayashi, J. Normand, 
 K. Raghavachari, A. P. Rendell, J. C. Burant, S. S. Iyengar, 
 J. Tomasi, M. Cossi, J. M. Millam, M. Klene, C. Adamo, R. Cammi, 
 J. W. Ochterski, R. L. Martin, K. Morokuma, O. Farkas, 
 J. B. Foresman, and D. J. Fox, Gaussian, Inc., Wallingford CT, 2019.
 
 ******************************************
 Gaussian 16:  ES64L-G16RevC.01  3-Jul-2019
                20-Nov-2021 
 ******************************************
 %mem=100GB
 %nprocshare=16
 Will use up to   16 processors via shared memory.
 %chk=Ni_3C6F5_Por_dipyrrole_O-.chk
 ----------------------------------------------------
 # opt b3lyp/genecp geom=connectivity scf=maxcyc=1000
 ----------------------------------------------------
 1/18=20,19=15,26=3,38=1,57=2/1,3;
 2/9=110,12=2,17=6,18=5,40=1/2;
 3/5=7,11=2,16=1,17=8,25=1,30=1,71=1,74=-5/1,2,3;
 4//1;
 5/5=2,7=1000,38=5/2;
 6/7=2,8=2,9=2,10=2,28=1/1;
 7//1,2,3,16;
 1/18=20,19=15,26=3/3(2);
 2/9=110/2;
 99//99;
 2/9=110/2;
 3/5=7,6=1,11=2,16=1,17=8,25=1,30=1,71=1,74=-5,82=7/1,2,3;
 4/5=5,16=3,69=1/1;
 5/5=2,7=1000,38=5/2;
 7//1,2,3,16;
 1/18=20,19=15,26=3/3(-5);
 2/9=110/2;
 6/7=2,8=2,9=2,10=2,19=2,28=1/1;
 99/9=1/99;
 -----
 title
 -----
 Symbolic Z-matrix:
 Charge = -1 Multiplicity = 1
 C                    -3.65056  -2.50741   3.47464 
 C                    -0.35792   1.8655    1.80611 
 C                     1.91194   1.37672   2.11374 
 C                     1.01256   0.28116   2.65922 
 C                     0.53006  -1.84769   3.41961 
 C                    -0.24201  -3.92033   3.43056 
 C                    -1.30028  -3.06967   3.15546 
 C                    -2.60444   2.47604   2.20148 
 C                    -3.74152   3.50718   2.31989 
 C                    -4.61301  -0.61892   4.13423 
 C                    -5.40476  -1.66515   4.58827 
 C                    -4.26748   1.56782   3.4486 
 H                    -6.2824   -1.59607   5.1935 
 H                    -3.75833   4.47197   1.86204 
 H                     2.97839   1.41977   2.18332 
 N                    -0.8903   -1.7992    3.17113 
 N                    -3.4308   -1.18696   3.52454 
 N                    -0.39374   0.68301   2.42357 
 N                    -2.9397    1.32953   2.84609 
 C                     1.10395   2.28048   1.53578 
 H                     1.41785   3.15256   1.00674 
 C                     0.87269  -3.15626   3.71349 
 H                     1.81372  -3.51404   4.07082 
 C                    -4.85783  -2.82404   4.07212 
 C                    -4.69914   2.98826   3.1064 
 H                    -5.59163   3.47644   3.43161 
 C                    -2.70046  -3.5225    2.92999 
 C                    -4.9617    0.69543   4.18302 
 C                     1.42254  -0.83244   3.2715 
 C                    -1.42337   2.68763   1.51752 
 C                     2.85572  -1.01049   3.76745 
 C                     3.83981  -1.28376   2.82608 
 C                     3.17737  -0.91449   5.13066 
 C                     5.14905  -1.52845   3.24106 
 C                     4.50993  -1.06467   5.53729 
 C                     5.49127  -1.39837   4.59379 
 C                    -1.27952   3.84838   0.51428 
 C                    -1.28087   3.60315  -0.87453 
 C                    -1.14709   5.15211   0.9897 
 C                    -1.19251   4.67975  -1.77273 
 C                    -0.96567   6.21193   0.0928 
 C                    -1.01112   5.98085  -1.28752 
 C                    -6.15469   1.12509   5.02566 
 C                    -7.36338   1.36269   4.38372 
 C                    -6.03973   1.26825   6.41456 
 C                    -8.49253   1.69138   5.13396 
 C                    -7.1479    1.69317   7.15654 
 C                    -8.38219   1.87933   6.51843 
 Ni                   -1.91328  -0.2526    2.97442 
 C                    -5.47852  -4.20705   4.19729 
 C                    -6.98982  -6.02487   4.64502 
 H                    -7.57348  -3.77103   4.49963 
 C                    -0.28244  -5.43793   3.476 
 C                     0.30772  -7.74998   3.78174 
 H                     1.80609  -5.96614   3.66124 
 F                     2.21913  -0.63483   6.04316 
 F                     4.85044  -0.88004   6.8317 
 F                     6.76652  -1.59495   4.98615 
 F                     6.07808  -1.90053   2.3376 
 F                     3.50938  -1.36039   1.52069 
 F                    -1.41405   2.34411  -1.34741 
 F                    -1.29146   4.46586  -3.10341 
 F                    -0.87991   7.01232  -2.14898 
 F                    -0.73642   7.45644   0.56091 
 F                    -1.14728   5.3815    2.31887 
 F                    -7.4478    1.22347   3.04415 
 F                    -9.68872   1.81621   4.52392 
 F                    -9.46509   2.23979   7.23607 
 F                    -7.0264    1.9322    8.4803 
 F                    -4.85698   1.04294   7.02993 
 H                     0.96777  -8.57873   3.92029 
 H                    -7.93358  -6.4802    4.85603 
 O                    -3.03195  -4.64014   2.45102 
 C                     0.77975  -6.27809   3.62688 
 C                    -6.78707  -4.49852   4.4366 
 C                    -5.82052  -6.71754   4.54551 
 H                    -5.7028   -7.75535   4.75525 
 C                    -1.0498   -7.8622    3.73748 
 H                    -1.59764  -8.75608   3.92519 
 N                    -4.50816  -5.66777   4.03163 
 H                    -4.07615  -6.56778   3.97367 
 N                    -1.79683  -6.32338   3.33586 
 H                    -2.57646  -6.94567   3.26561 
 

 GradGradGradGradGradGradGradGradGradGradGradGradGradGradGradGradGradGrad
 Berny optimization.
 Initialization pass.
                           ----------------------------
                           !    Initial Parameters    !
                           ! (Angstroms and Degrees)  !
 --------------------------                            --------------------------
 ! Name  Definition              Value          Derivative Info.                !
 --------------------------------------------------------------------------------
 ! R1    R(1,17)                 1.3395         estimate D2E/DX2                !
 ! R2    R(1,24)                 1.3837         estimate D2E/DX2                !
 ! R3    R(1,27)                 1.4932         estimate D2E/DX2                !
 ! R4    R(2,18)                 1.3345         estimate D2E/DX2                !
 ! R5    R(2,20)                 1.5435         estimate D2E/DX2                !
 ! R6    R(2,30)                 1.3764         estimate D2E/DX2                !
 ! R7    R(3,4)                  1.5188         estimate D2E/DX2                !
 ! R8    R(3,15)                 1.0696         estimate D2E/DX2                !
 ! R9    R(3,20)                 1.343          estimate D2E/DX2                !
 ! R10   R(4,18)                 1.4814         estimate D2E/DX2                !
 ! R11   R(4,29)                 1.3353         estimate D2E/DX2                !
 ! R12   R(5,16)                 1.4427         estimate D2E/DX2                !
 ! R13   R(5,22)                 1.3842         estimate D2E/DX2                !
 ! R14   R(5,29)                 1.3599         estimate D2E/DX2                !
 ! R15   R(6,7)                  1.3854         estimate D2E/DX2                !
 ! R16   R(6,22)                 1.3807         estimate D2E/DX2                !
 ! R17   R(6,53)                 1.5188         estimate D2E/DX2                !
 ! R18   R(7,16)                 1.3351         estimate D2E/DX2                !
 ! R19   R(7,27)                 1.4888         estimate D2E/DX2                !
 ! R20   R(8,9)                  1.5395         estimate D2E/DX2                !
 ! R21   R(8,19)                 1.3574         estimate D2E/DX2                !
 ! R22   R(8,30)                 1.3811         estimate D2E/DX2                !
 ! R23   R(9,14)                 1.068          estimate D2E/DX2                !
 ! R24   R(9,25)                 1.3435         estimate D2E/DX2                !
 ! R25   R(10,11)                1.3884         estimate D2E/DX2                !
 ! R26   R(10,17)                1.4464         estimate D2E/DX2                !
 ! R27   R(10,28)                1.3607         estimate D2E/DX2                !
 ! R28   R(11,13)                1.0683         estimate D2E/DX2                !
 ! R29   R(11,24)                1.3815         estimate D2E/DX2                !
 ! R30   R(12,19)                1.4774         estimate D2E/DX2                !
 ! R31   R(12,25)                1.5235         estimate D2E/DX2                !
 ! R32   R(12,28)                1.3351         estimate D2E/DX2                !
 ! R33   R(16,49)                1.8647         estimate D2E/DX2                !
 ! R34   R(17,49)                1.8651         estimate D2E/DX2                !
 ! R35   R(18,49)                1.8676         estimate D2E/DX2                !
 ! R36   R(19,49)                1.8903         estimate D2E/DX2                !
 ! R37   R(20,21)                1.0672         estimate D2E/DX2                !
 ! R38   R(22,23)                1.0683         estimate D2E/DX2                !
 ! R39   R(24,50)                1.5211         estimate D2E/DX2                !
 ! R40   R(25,26)                1.068          estimate D2E/DX2                !
 ! R41   R(27,73)                1.2603         estimate D2E/DX2                !
 ! R42   R(28,43)                1.5225         estimate D2E/DX2                !
 ! R43   R(29,31)                1.527          estimate D2E/DX2                !
 ! R44   R(30,37)                1.5409         estimate D2E/DX2                !
 ! R45   R(31,32)                1.389          estimate D2E/DX2                !
 ! R46   R(31,33)                1.4039         estimate D2E/DX2                !
 ! R47   R(32,34)                1.3951         estimate D2E/DX2                !
 ! R48   R(32,60)                1.3487         estimate D2E/DX2                !
 ! R49   R(33,35)                1.4013         estimate D2E/DX2                !
 ! R50   R(33,56)                1.3524         estimate D2E/DX2                !
 ! R51   R(34,36)                1.4014         estimate D2E/DX2                !
 ! R52   R(34,59)                1.3482         estimate D2E/DX2                !
 ! R53   R(35,36)                1.4016         estimate D2E/DX2                !
 ! R54   R(35,57)                1.3511         estimate D2E/DX2                !
 ! R55   R(36,58)                1.3486         estimate D2E/DX2                !
 ! R56   R(37,38)                1.4103         estimate D2E/DX2                !
 ! R57   R(37,39)                1.394          estimate D2E/DX2                !
 ! R58   R(38,40)                1.4049         estimate D2E/DX2                !
 ! R59   R(38,61)                1.3515         estimate D2E/DX2                !
 ! R60   R(39,41)                1.4002         estimate D2E/DX2                !
 ! R61   R(39,65)                1.3488         estimate D2E/DX2                !
 ! R62   R(40,42)                1.4004         estimate D2E/DX2                !
 ! R63   R(40,62)                1.3514         estimate D2E/DX2                !
 ! R64   R(41,42)                1.4003         estimate D2E/DX2                !
 ! R65   R(41,64)                1.3493         estimate D2E/DX2                !
 ! R66   R(42,63)                1.3503         estimate D2E/DX2                !
 ! R67   R(43,44)                1.3891         estimate D2E/DX2                !
 ! R68   R(43,45)                1.401          estimate D2E/DX2                !
 ! R69   R(44,46)                1.3949         estimate D2E/DX2                !
 ! R70   R(44,66)                1.3494         estimate D2E/DX2                !
 ! R71   R(45,47)                1.3997         estimate D2E/DX2                !
 ! R72   R(45,70)                1.3522         estimate D2E/DX2                !
 ! R73   R(46,48)                1.4015         estimate D2E/DX2                !
 ! R74   R(46,67)                1.3486         estimate D2E/DX2                !
 ! R75   R(47,48)                1.4019         estimate D2E/DX2                !
 ! R76   R(47,69)                1.3506         estimate D2E/DX2                !
 ! R77   R(48,68)                1.3482         estimate D2E/DX2                !
 ! R78   R(50,75)                1.3618         estimate D2E/DX2                !
 ! R79   R(50,80)                1.7615         estimate D2E/DX2                !
 ! R80   R(51,72)                1.0689         estimate D2E/DX2                !
 ! R81   R(51,75)                1.5538         estimate D2E/DX2                !
 ! R82   R(51,76)                1.3627         estimate D2E/DX2                !
 ! R83   R(52,75)                1.0731         estimate D2E/DX2                !
 ! R84   R(53,74)                1.3627         estimate D2E/DX2                !
 ! R85   R(53,82)                1.7598         estimate D2E/DX2                !
 ! R86   R(54,71)                1.0685         estimate D2E/DX2                !
 ! R87   R(54,74)                1.5535         estimate D2E/DX2                !
 ! R88   R(54,78)                1.3629         estimate D2E/DX2                !
 ! R89   R(55,74)                1.0733         estimate D2E/DX2                !
 ! R90   R(76,77)                1.0653         estimate D2E/DX2                !
 ! R91   R(76,80)                1.7574         estimate D2E/DX2                !
 ! R92   R(78,79)                1.0651         estimate D2E/DX2                !
 ! R93   R(78,82)                1.7571         estimate D2E/DX2                !
 ! R94   R(80,81)                1.0            estimate D2E/DX2                !
 ! R95   R(82,83)                1.0            estimate D2E/DX2                !
 ! A1    A(17,1,24)            110.6473         estimate D2E/DX2                !
 ! A2    A(17,1,27)            125.4021         estimate D2E/DX2                !
 ! A3    A(24,1,27)            123.8527         estimate D2E/DX2                !
 ! A4    A(18,2,20)            110.1629         estimate D2E/DX2                !
 ! A5    A(18,2,30)            127.2673         estimate D2E/DX2                !
 ! A6    A(20,2,30)            122.4022         estimate D2E/DX2                !
 ! A7    A(4,3,15)             126.5917         estimate D2E/DX2                !
 ! A8    A(4,3,20)             106.4821         estimate D2E/DX2                !
 ! A9    A(15,3,20)            126.9253         estimate D2E/DX2                !
 ! A10   A(3,4,18)             108.019          estimate D2E/DX2                !
 ! A11   A(3,4,29)             125.7631         estimate D2E/DX2                !
 ! A12   A(18,4,29)            126.2006         estimate D2E/DX2                !
 ! A13   A(16,5,22)            108.1809         estimate D2E/DX2                !
 ! A14   A(16,5,29)            127.033          estimate D2E/DX2                !
 ! A15   A(22,5,29)            124.5031         estimate D2E/DX2                !
 ! A16   A(7,6,22)             108.5179         estimate D2E/DX2                !
 ! A17   A(7,6,53)             126.8094         estimate D2E/DX2                !
 ! A18   A(22,6,53)            124.6314         estimate D2E/DX2                !
 ! A19   A(6,7,16)             110.3295         estimate D2E/DX2                !
 ! A20   A(6,7,27)             124.1765         estimate D2E/DX2                !
 ! A21   A(16,7,27)            125.453          estimate D2E/DX2                !
 ! A22   A(9,8,19)             110.2903         estimate D2E/DX2                !
 ! A23   A(9,8,30)             124.5462         estimate D2E/DX2                !
 ! A24   A(19,8,30)            125.1563         estimate D2E/DX2                !
 ! A25   A(8,9,14)             125.7092         estimate D2E/DX2                !
 ! A26   A(8,9,25)             108.2271         estimate D2E/DX2                !
 ! A27   A(14,9,25)            126.0611         estimate D2E/DX2                !
 ! A28   A(11,10,17)           107.9393         estimate D2E/DX2                !
 ! A29   A(11,10,28)           124.7526         estimate D2E/DX2                !
 ! A30   A(17,10,28)           127.152          estimate D2E/DX2                !
 ! A31   A(10,11,13)           127.2305         estimate D2E/DX2                !
 ! A32   A(10,11,24)           106.5102         estimate D2E/DX2                !
 ! A33   A(13,11,24)           126.2367         estimate D2E/DX2                !
 ! A34   A(19,12,25)           108.2653         estimate D2E/DX2                !
 ! A35   A(19,12,28)           125.8922         estimate D2E/DX2                !
 ! A36   A(25,12,28)           125.8361         estimate D2E/DX2                !
 ! A37   A(5,16,7)             105.8044         estimate D2E/DX2                !
 ! A38   A(5,16,49)            125.8828         estimate D2E/DX2                !
 ! A39   A(7,16,49)            128.2847         estimate D2E/DX2                !
 ! A40   A(1,17,10)            105.59           estimate D2E/DX2                !
 ! A41   A(1,17,49)            128.0487         estimate D2E/DX2                !
 ! A42   A(10,17,49)           126.3432         estimate D2E/DX2                !
 ! A43   A(2,18,4)             106.7675         estimate D2E/DX2                !
 ! A44   A(2,18,49)            127.0301         estimate D2E/DX2                !
 ! A45   A(4,18,49)            126.1257         estimate D2E/DX2                !
 ! A46   A(8,19,12)            106.2251         estimate D2E/DX2                !
 ! A47   A(8,19,49)            127.2351         estimate D2E/DX2                !
 ! A48   A(12,19,49)           126.5351         estimate D2E/DX2                !
 ! A49   A(2,20,3)             108.2714         estimate D2E/DX2                !
 ! A50   A(2,20,21)            125.8099         estimate D2E/DX2                !
 ! A51   A(3,20,21)            125.8929         estimate D2E/DX2                !
 ! A52   A(5,22,6)             106.2481         estimate D2E/DX2                !
 ! A53   A(5,22,23)            127.2756         estimate D2E/DX2                !
 ! A54   A(6,22,23)            126.4679         estimate D2E/DX2                !
 ! A55   A(1,24,11)            108.3468         estimate D2E/DX2                !
 ! A56   A(1,24,50)            126.8425         estimate D2E/DX2                !
 ! A57   A(11,24,50)           124.7798         estimate D2E/DX2                !
 ! A58   A(9,25,12)            106.8371         estimate D2E/DX2                !
 ! A59   A(9,25,26)            126.6819         estimate D2E/DX2                !
 ! A60   A(12,25,26)           126.4809         estimate D2E/DX2                !
 ! A61   A(1,27,7)             109.6579         estimate D2E/DX2                !
 ! A62   A(1,27,73)            125.0366         estimate D2E/DX2                !
 ! A63   A(7,27,73)            125.0756         estimate D2E/DX2                !
 ! A64   A(10,28,12)           118.569          estimate D2E/DX2                !
 ! A65   A(10,28,43)           119.5546         estimate D2E/DX2                !
 ! A66   A(12,28,43)           121.8379         estimate D2E/DX2                !
 ! A67   A(4,29,5)             118.1028         estimate D2E/DX2                !
 ! A68   A(4,29,31)            122.2994         estimate D2E/DX2                !
 ! A69   A(5,29,31)            119.5748         estimate D2E/DX2                !
 ! A70   A(2,30,8)             117.8158         estimate D2E/DX2                !
 ! A71   A(2,30,37)            120.9431         estimate D2E/DX2                !
 ! A72   A(8,30,37)            121.175          estimate D2E/DX2                !
 ! A73   A(29,31,32)           117.8905         estimate D2E/DX2                !
 ! A74   A(29,31,33)           121.4956         estimate D2E/DX2                !
 ! A75   A(32,31,33)           120.6117         estimate D2E/DX2                !
 ! A76   A(31,32,34)           119.8554         estimate D2E/DX2                !
 ! A77   A(31,32,60)           119.5748         estimate D2E/DX2                !
 ! A78   A(34,32,60)           120.5213         estimate D2E/DX2                !
 ! A79   A(31,33,35)           119.492          estimate D2E/DX2                !
 ! A80   A(31,33,56)           120.4608         estimate D2E/DX2                !
 ! A81   A(35,33,56)           120.0102         estimate D2E/DX2                !
 ! A82   A(32,34,36)           120.002          estimate D2E/DX2                !
 ! A83   A(32,34,59)           119.7194         estimate D2E/DX2                !
 ! A84   A(36,34,59)           120.2763         estimate D2E/DX2                !
 ! A85   A(33,35,36)           119.7349         estimate D2E/DX2                !
 ! A86   A(33,35,57)           120.1994         estimate D2E/DX2                !
 ! A87   A(36,35,57)           120.0642         estimate D2E/DX2                !
 ! A88   A(34,36,35)           120.0589         estimate D2E/DX2                !
 ! A89   A(34,36,58)           119.8815         estimate D2E/DX2                !
 ! A90   A(35,36,58)           120.0597         estimate D2E/DX2                !
 ! A91   A(30,37,38)           120.6676         estimate D2E/DX2                !
 ! A92   A(30,37,39)           119.4272         estimate D2E/DX2                !
 ! A93   A(38,37,39)           119.9052         estimate D2E/DX2                !
 ! A94   A(37,38,40)           119.7549         estimate D2E/DX2                !
 ! A95   A(37,38,61)           120.4416         estimate D2E/DX2                !
 ! A96   A(40,38,61)           119.7622         estimate D2E/DX2                !
 ! A97   A(37,39,41)           120.1154         estimate D2E/DX2                !
 ! A98   A(37,39,65)           119.6774         estimate D2E/DX2                !
 ! A99   A(41,39,65)           120.166          estimate D2E/DX2                !
 ! A100  A(38,40,42)           119.9083         estimate D2E/DX2                !
 ! A101  A(38,40,62)           120.2424         estimate D2E/DX2                !
 ! A102  A(42,40,62)           119.8476         estimate D2E/DX2                !
 ! A103  A(39,41,42)           120.1528         estimate D2E/DX2                !
 ! A104  A(39,41,64)           119.8634         estimate D2E/DX2                !
 ! A105  A(42,41,64)           119.9818         estimate D2E/DX2                !
 ! A106  A(40,42,41)           119.9381         estimate D2E/DX2                !
 ! A107  A(40,42,63)           120.0827         estimate D2E/DX2                !
 ! A108  A(41,42,63)           119.9791         estimate D2E/DX2                !
 ! A109  A(28,43,44)           118.3164         estimate D2E/DX2                !
 ! A110  A(28,43,45)           120.8797         estimate D2E/DX2                !
 ! A111  A(44,43,45)           120.8023         estimate D2E/DX2                !
 ! A112  A(43,44,46)           119.7428         estimate D2E/DX2                !
 ! A113  A(43,44,66)           119.706          estimate D2E/DX2                !
 ! A114  A(46,44,66)           120.5021         estimate D2E/DX2                !
 ! A115  A(43,45,47)           119.4444         estimate D2E/DX2                !
 ! A116  A(43,45,70)           120.3929         estimate D2E/DX2                !
 ! A117  A(47,45,70)           120.1238         estimate D2E/DX2                !
 ! A118  A(44,46,48)           119.9442         estimate D2E/DX2                !
 ! A119  A(44,46,67)           119.7698         estimate D2E/DX2                !
 ! A120  A(48,46,67)           120.2838         estimate D2E/DX2                !
 ! A121  A(45,47,48)           119.7422         estimate D2E/DX2                !
 ! A122  A(45,47,69)           120.1358         estimate D2E/DX2                !
 ! A123  A(48,47,69)           120.1203         estimate D2E/DX2                !
 ! A124  A(46,48,47)           120.0759         estimate D2E/DX2                !
 ! A125  A(46,48,68)           119.897          estimate D2E/DX2                !
 ! A126  A(47,48,68)           120.0271         estimate D2E/DX2                !
 ! A127  A(16,49,17)            89.9849         estimate D2E/DX2                !
 ! A128  A(16,49,18)            90.0153         estimate D2E/DX2                !
 ! A129  A(17,49,19)            89.8577         estimate D2E/DX2                !
 ! A130  A(18,49,19)            90.1421         estimate D2E/DX2                !
 ! A131  A(24,50,75)           126.9538         estimate D2E/DX2                !
 ! A132  A(24,50,80)           121.4302         estimate D2E/DX2                !
 ! A133  A(75,50,80)           111.6158         estimate D2E/DX2                !
 ! A134  A(72,51,75)           124.0659         estimate D2E/DX2                !
 ! A135  A(72,51,76)           123.7462         estimate D2E/DX2                !
 ! A136  A(75,51,76)           112.1825         estimate D2E/DX2                !
 ! A137  A(6,53,74)            126.7718         estimate D2E/DX2                !
 ! A138  A(6,53,82)            121.5515         estimate D2E/DX2                !
 ! A139  A(74,53,82)           111.6764         estimate D2E/DX2                !
 ! A140  A(71,54,74)           124.0633         estimate D2E/DX2                !
 ! A141  A(71,54,78)           123.7563         estimate D2E/DX2                !
 ! A142  A(74,54,78)           112.1756         estimate D2E/DX2                !
 ! A143  A(53,74,54)           110.9998         estimate D2E/DX2                !
 ! A144  A(53,74,55)           124.7325         estimate D2E/DX2                !
 ! A145  A(54,74,55)           124.2487         estimate D2E/DX2                !
 ! A146  A(50,75,51)           111.0513         estimate D2E/DX2                !
 ! A147  A(50,75,52)           124.707          estimate D2E/DX2                !
 ! A148  A(51,75,52)           124.2234         estimate D2E/DX2                !
 ! A149  A(51,76,77)           125.143          estimate D2E/DX2                !
 ! A150  A(51,76,80)           111.0086         estimate D2E/DX2                !
 ! A151  A(77,76,80)           123.8469         estimate D2E/DX2                !
 ! A152  A(54,78,79)           125.1511         estimate D2E/DX2                !
 ! A153  A(54,78,82)           111.0263         estimate D2E/DX2                !
 ! A154  A(79,78,82)           123.8216         estimate D2E/DX2                !
 ! A155  A(50,80,76)            93.2375         estimate D2E/DX2                !
 ! A156  A(76,80,81)            78.5768         estimate D2E/DX2                !
 ! A157  A(53,82,78)            93.244          estimate D2E/DX2                !
 ! A158  A(78,82,83)            78.6113         estimate D2E/DX2                !
 ! A159  L(16,49,19,18,-1)     180.1574         estimate D2E/DX2                !
 ! A160  L(17,49,18,19,-1)     179.9998         estimate D2E/DX2                !
 ! A161  L(50,80,81,76,-1)     171.8142         estimate D2E/DX2                !
 ! A162  L(53,82,83,78,-1)     171.8553         estimate D2E/DX2                !
 ! A163  L(16,49,19,18,-2)     182.2159         estimate D2E/DX2                !
 ! A164  L(17,49,18,19,-2)     179.9999         estimate D2E/DX2                !
 ! A165  L(50,80,81,76,-2)     179.5492         estimate D2E/DX2                !
 ! A166  L(53,82,83,78,-2)     181.4793         estimate D2E/DX2                !
 ! D1    D(24,1,17,10)          -3.0997         estimate D2E/DX2                !
 ! D2    D(24,1,17,49)         175.417          estimate D2E/DX2                !
 ! D3    D(27,1,17,10)        -179.6058         estimate D2E/DX2                !
 ! D4    D(27,1,17,49)          -1.089          estimate D2E/DX2                !
 ! D5    D(17,1,24,11)          -3.1449         estimate D2E/DX2                !
 ! D6    D(17,1,24,50)         178.8123         estimate D2E/DX2                !
 ! D7    D(27,1,24,11)         173.4258         estimate D2E/DX2                !
 ! D8    D(27,1,24,50)          -4.617          estimate D2E/DX2                !
 ! D9    D(17,1,27,7)           31.477          estimate D2E/DX2                !
 ! D10   D(17,1,27,73)        -153.8089         estimate D2E/DX2                !
 ! D11   D(24,1,27,7)         -144.5854         estimate D2E/DX2                !
 ! D12   D(24,1,27,73)          30.1288         estimate D2E/DX2                !
 ! D13   D(20,2,18,4)            2.8054         estimate D2E/DX2                !
 ! D14   D(20,2,18,49)         179.7578         estimate D2E/DX2                !
 ! D15   D(30,2,18,4)         -172.5369         estimate D2E/DX2                !
 ! D16   D(30,2,18,49)           4.4155         estimate D2E/DX2                !
 ! D17   D(18,2,20,3)           -5.4627         estimate D2E/DX2                !
 ! D18   D(18,2,20,21)         176.2995         estimate D2E/DX2                !
 ! D19   D(30,2,20,3)          170.1476         estimate D2E/DX2                !
 ! D20   D(30,2,20,21)          -8.0902         estimate D2E/DX2                !
 ! D21   D(18,2,30,8)           17.7371         estimate D2E/DX2                !
 ! D22   D(18,2,30,37)        -165.1856         estimate D2E/DX2                !
 ! D23   D(20,2,30,8)         -157.083          estimate D2E/DX2                !
 ! D24   D(20,2,30,37)          19.9943         estimate D2E/DX2                !
 ! D25   D(15,3,4,18)          175.8515         estimate D2E/DX2                !
 ! D26   D(15,3,4,29)           -2.7062         estimate D2E/DX2                !
 ! D27   D(20,3,4,18)           -3.8086         estimate D2E/DX2                !
 ! D28   D(20,3,4,29)          177.6337         estimate D2E/DX2                !
 ! D29   D(4,3,20,2)             5.3119         estimate D2E/DX2                !
 ! D30   D(4,3,20,21)         -176.4521         estimate D2E/DX2                !
 ! D31   D(15,3,20,2)         -174.3467         estimate D2E/DX2                !
 ! D32   D(15,3,20,21)           3.8893         estimate D2E/DX2                !
 ! D33   D(3,4,18,2)             0.3802         estimate D2E/DX2                !
 ! D34   D(3,4,18,49)         -176.6077         estimate D2E/DX2                !
 ! D35   D(29,4,18,2)          178.9298         estimate D2E/DX2                !
 ! D36   D(29,4,18,49)           1.9419         estimate D2E/DX2                !
 ! D37   D(3,4,29,5)          -164.8852         estimate D2E/DX2                !
 ! D38   D(3,4,29,31)           13.3613         estimate D2E/DX2                !
 ! D39   D(18,4,29,5)           16.8145         estimate D2E/DX2                !
 ! D40   D(18,4,29,31)        -164.939          estimate D2E/DX2                !
 ! D41   D(22,5,16,7)           -7.6286         estimate D2E/DX2                !
 ! D42   D(22,5,16,49)         170.5718         estimate D2E/DX2                !
 ! D43   D(29,5,16,7)          166.4373         estimate D2E/DX2                !
 ! D44   D(29,5,16,49)         -15.3623         estimate D2E/DX2                !
 ! D45   D(16,5,22,6)            9.8091         estimate D2E/DX2                !
 ! D46   D(16,5,22,23)        -171.1994         estimate D2E/DX2                !
 ! D47   D(29,5,22,6)         -164.4433         estimate D2E/DX2                !
 ! D48   D(29,5,22,23)          14.5482         estimate D2E/DX2                !
 ! D49   D(16,5,29,4)          -10.2325         estimate D2E/DX2                !
 ! D50   D(16,5,29,31)         171.4717         estimate D2E/DX2                !
 ! D51   D(22,5,29,4)          162.9222         estimate D2E/DX2                !
 ! D52   D(22,5,29,31)         -15.3736         estimate D2E/DX2                !
 ! D53   D(22,6,7,16)            3.7399         estimate D2E/DX2                !
 ! D54   D(22,6,7,27)         -174.0408         estimate D2E/DX2                !
 ! D55   D(53,6,7,16)         -178.523          estimate D2E/DX2                !
 ! D56   D(53,6,7,27)            3.6962         estimate D2E/DX2                !
 ! D57   D(7,6,22,5)            -8.4053         estimate D2E/DX2                !
 ! D58   D(7,6,22,23)          172.5926         estimate D2E/DX2                !
 ! D59   D(53,6,22,5)          173.7966         estimate D2E/DX2                !
 ! D60   D(53,6,22,23)          -5.2056         estimate D2E/DX2                !
 ! D61   D(7,6,53,74)          173.6102         estimate D2E/DX2                !
 ! D62   D(7,6,53,82)           -6.6228         estimate D2E/DX2                !
 ! D63   D(22,6,53,74)          -8.9978         estimate D2E/DX2                !
 ! D64   D(22,6,53,82)         170.7692         estimate D2E/DX2                !
 ! D65   D(6,7,16,5)             2.3638         estimate D2E/DX2                !
 ! D66   D(6,7,16,49)         -175.7786         estimate D2E/DX2                !
 ! D67   D(27,7,16,5)         -179.8901         estimate D2E/DX2                !
 ! D68   D(27,7,16,49)           1.9675         estimate D2E/DX2                !
 ! D69   D(6,7,27,1)           145.498          estimate D2E/DX2                !
 ! D70   D(6,7,27,73)          -29.2136         estimate D2E/DX2                !
 ! D71   D(16,7,27,1)          -31.9472         estimate D2E/DX2                !
 ! D72   D(16,7,27,73)         153.3412         estimate D2E/DX2                !
 ! D73   D(19,8,9,14)         -176.6353         estimate D2E/DX2                !
 ! D74   D(19,8,9,25)            3.9199         estimate D2E/DX2                !
 ! D75   D(30,8,9,14)            2.4382         estimate D2E/DX2                !
 ! D76   D(30,8,9,25)         -177.0065         estimate D2E/DX2                !
 ! D77   D(9,8,19,12)           -1.9818         estimate D2E/DX2                !
 ! D78   D(9,8,19,49)          178.7644         estimate D2E/DX2                !
 ! D79   D(30,8,19,12)         178.9516         estimate D2E/DX2                !
 ! D80   D(30,8,19,49)          -0.3023         estimate D2E/DX2                !
 ! D81   D(9,8,30,2)           161.554          estimate D2E/DX2                !
 ! D82   D(9,8,30,37)          -15.5162         estimate D2E/DX2                !
 ! D83   D(19,8,30,2)          -19.5088         estimate D2E/DX2                !
 ! D84   D(19,8,30,37)         163.421          estimate D2E/DX2                !
 ! D85   D(8,9,25,12)           -3.8603         estimate D2E/DX2                !
 ! D86   D(8,9,25,26)          176.0607         estimate D2E/DX2                !
 ! D87   D(14,9,25,12)         176.6975         estimate D2E/DX2                !
 ! D88   D(14,9,25,26)          -3.3816         estimate D2E/DX2                !
 ! D89   D(17,10,11,13)        171.5661         estimate D2E/DX2                !
 ! D90   D(17,10,11,24)        -10.0876         estimate D2E/DX2                !
 ! D91   D(28,10,11,13)        -12.7037         estimate D2E/DX2                !
 ! D92   D(28,10,11,24)        165.6426         estimate D2E/DX2                !
 ! D93   D(11,10,17,1)           8.2187         estimate D2E/DX2                !
 ! D94   D(11,10,17,49)       -170.3312         estimate D2E/DX2                !
 ! D95   D(28,10,17,1)        -167.3796         estimate D2E/DX2                !
 ! D96   D(28,10,17,49)         14.0705         estimate D2E/DX2                !
 ! D97   D(11,10,28,12)       -164.7712         estimate D2E/DX2                !
 ! D98   D(11,10,28,43)         13.013          estimate D2E/DX2                !
 ! D99   D(17,10,28,12)         10.1301         estimate D2E/DX2                !
 ! D100  D(17,10,28,43)       -172.0856         estimate D2E/DX2                !
 ! D101  D(10,11,24,1)           8.2434         estimate D2E/DX2                !
 ! D102  D(10,11,24,50)       -173.6636         estimate D2E/DX2                !
 ! D103  D(13,11,24,1)        -173.3891         estimate D2E/DX2                !
 ! D104  D(13,11,24,50)          4.7039         estimate D2E/DX2                !
 ! D105  D(25,12,19,8)          -0.3307         estimate D2E/DX2                !
 ! D106  D(25,12,19,49)        178.93           estimate D2E/DX2                !
 ! D107  D(28,12,19,8)        -179.4484         estimate D2E/DX2                !
 ! D108  D(28,12,19,49)         -0.1877         estimate D2E/DX2                !
 ! D109  D(19,12,25,9)           2.7968         estimate D2E/DX2                !
 ! D110  D(19,12,25,26)       -177.1244         estimate D2E/DX2                !
 ! D111  D(28,12,25,9)        -178.0849         estimate D2E/DX2                !
 ! D112  D(28,12,25,26)          1.9939         estimate D2E/DX2                !
 ! D113  D(19,12,28,10)        -16.8096         estimate D2E/DX2                !
 ! D114  D(19,12,28,43)        165.4593         estimate D2E/DX2                !
 ! D115  D(25,12,28,10)        164.2239         estimate D2E/DX2                !
 ! D116  D(25,12,28,43)        -13.5072         estimate D2E/DX2                !
 ! D117  D(5,16,49,17)        -154.8724         estimate D2E/DX2                !
 ! D118  D(5,16,49,18)          25.1276         estimate D2E/DX2                !
 ! D119  D(7,16,49,17)          22.9214         estimate D2E/DX2                !
 ! D120  D(7,16,49,18)        -157.0786         estimate D2E/DX2                !
 ! D121  D(1,17,49,16)         -23.258          estimate D2E/DX2                !
 ! D122  D(1,17,49,19)         158.9579         estimate D2E/DX2                !
 ! D123  D(10,17,49,16)        154.9682         estimate D2E/DX2                !
 ! D124  D(10,17,49,19)        -22.8159         estimate D2E/DX2                !
 ! D125  D(2,18,49,16)         164.3895         estimate D2E/DX2                !
 ! D126  D(2,18,49,19)         -17.8264         estimate D2E/DX2                !
 ! D127  D(4,18,49,16)         -19.2239         estimate D2E/DX2                !
 ! D128  D(4,18,49,19)         158.5603         estimate D2E/DX2                !
 ! D129  D(8,19,49,17)        -164.1022         estimate D2E/DX2                !
 ! D130  D(8,19,49,18)          15.8978         estimate D2E/DX2                !
 ! D131  D(12,19,49,17)         16.7894         estimate D2E/DX2                !
 ! D132  D(12,19,49,18)       -163.2105         estimate D2E/DX2                !
 ! D133  D(1,24,50,75)        -160.4683         estimate D2E/DX2                !
 ! D134  D(1,24,50,80)          19.3846         estimate D2E/DX2                !
 ! D135  D(11,24,50,75)         21.7936         estimate D2E/DX2                !
 ! D136  D(11,24,50,80)       -158.3535         estimate D2E/DX2                !
 ! D137  D(10,28,43,44)       -100.3567         estimate D2E/DX2                !
 ! D138  D(10,28,43,45)         79.1971         estimate D2E/DX2                !
 ! D139  D(12,28,43,44)         77.3527         estimate D2E/DX2                !
 ! D140  D(12,28,43,45)       -103.0936         estimate D2E/DX2                !
 ! D141  D(4,29,31,32)         -76.1283         estimate D2E/DX2                !
 ! D142  D(4,29,31,33)         104.4119         estimate D2E/DX2                !
 ! D143  D(5,29,31,32)         102.0932         estimate D2E/DX2                !
 ! D144  D(5,29,31,33)         -77.3666         estimate D2E/DX2                !
 ! D145  D(2,30,37,38)          77.5606         estimate D2E/DX2                !
 ! D146  D(2,30,37,39)        -102.443          estimate D2E/DX2                !
 ! D147  D(8,30,37,38)        -105.4607         estimate D2E/DX2                !
 ! D148  D(8,30,37,39)          74.5356         estimate D2E/DX2                !
 ! D149  D(29,31,32,34)       -176.3988         estimate D2E/DX2                !
 ! D150  D(29,31,32,60)          1.0832         estimate D2E/DX2                !
 ! D151  D(33,31,32,34)          3.0661         estimate D2E/DX2                !
 ! D152  D(33,31,32,60)       -179.452          estimate D2E/DX2                !
 ! D153  D(29,31,33,35)       -179.018          estimate D2E/DX2                !
 ! D154  D(29,31,33,56)         -1.2303         estimate D2E/DX2                !
 ! D155  D(32,31,33,35)          1.5368         estimate D2E/DX2                !
 ! D156  D(32,31,33,56)        179.3245         estimate D2E/DX2                !
 ! D157  D(31,32,34,36)         -4.8613         estimate D2E/DX2                !
 ! D158  D(31,32,34,59)        174.591          estimate D2E/DX2                !
 ! D159  D(60,32,34,36)        177.6809         estimate D2E/DX2                !
 ! D160  D(60,32,34,59)         -2.8668         estimate D2E/DX2                !
 ! D161  D(31,33,35,36)         -4.3217         estimate D2E/DX2                !
 ! D162  D(31,33,35,57)        175.2341         estimate D2E/DX2                !
 ! D163  D(56,33,35,36)        177.8805         estimate D2E/DX2                !
 ! D164  D(56,33,35,57)         -2.5637         estimate D2E/DX2                !
 ! D165  D(32,34,36,35)          2.0618         estimate D2E/DX2                !
 ! D166  D(32,34,36,58)       -177.9443         estimate D2E/DX2                !
 ! D167  D(59,34,36,35)       -177.3874         estimate D2E/DX2                !
 ! D168  D(59,34,36,58)          2.6065         estimate D2E/DX2                !
 ! D169  D(33,35,36,34)          2.5426         estimate D2E/DX2                !
 ! D170  D(33,35,36,58)       -177.4513         estimate D2E/DX2                !
 ! D171  D(57,35,36,34)       -177.0138         estimate D2E/DX2                !
 ! D172  D(57,35,36,58)          2.9923         estimate D2E/DX2                !
 ! D173  D(30,37,38,40)        177.9227         estimate D2E/DX2                !
 ! D174  D(30,37,38,61)          0.2666         estimate D2E/DX2                !
 ! D175  D(39,37,38,40)         -2.0736         estimate D2E/DX2                !
 ! D176  D(39,37,38,61)       -179.7297         estimate D2E/DX2                !
 ! D177  D(30,37,39,41)        177.6285         estimate D2E/DX2                !
 ! D178  D(30,37,39,65)         -0.0411         estimate D2E/DX2                !
 ! D179  D(38,37,39,41)         -2.3751         estimate D2E/DX2                !
 ! D180  D(38,37,39,65)        179.9553         estimate D2E/DX2                !
 ! D181  D(37,38,40,42)          4.3869         estimate D2E/DX2                !
 ! D182  D(37,38,40,62)       -175.1401         estimate D2E/DX2                !
 ! D183  D(61,38,40,42)       -177.941          estimate D2E/DX2                !
 ! D184  D(61,38,40,62)          2.532          estimate D2E/DX2                !
 ! D185  D(37,39,41,42)          4.5283         estimate D2E/DX2                !
 ! D186  D(37,39,41,64)       -174.9638         estimate D2E/DX2                !
 ! D187  D(65,39,41,42)       -177.8135         estimate D2E/DX2                !
 ! D188  D(65,39,41,64)          2.6943         estimate D2E/DX2                !
 ! D189  D(38,40,42,41)         -2.2586         estimate D2E/DX2                !
 ! D190  D(38,40,42,63)        177.734          estimate D2E/DX2                !
 ! D191  D(62,40,42,41)        177.2703         estimate D2E/DX2                !
 ! D192  D(62,40,42,63)         -2.7371         estimate D2E/DX2                !
 ! D193  D(39,41,42,40)         -2.1988         estimate D2E/DX2                !
 ! D194  D(39,41,42,63)        177.8086         estimate D2E/DX2                !
 ! D195  D(64,41,42,40)        177.2928         estimate D2E/DX2                !
 ! D196  D(64,41,42,63)         -2.6998         estimate D2E/DX2                !
 ! D197  D(28,43,44,46)        176.7465         estimate D2E/DX2                !
 ! D198  D(28,43,44,66)         -0.7187         estimate D2E/DX2                !
 ! D199  D(45,43,44,46)         -2.8076         estimate D2E/DX2                !
 ! D200  D(45,43,44,66)        179.7272         estimate D2E/DX2                !
 ! D201  D(28,43,45,47)        178.6072         estimate D2E/DX2                !
 ! D202  D(28,43,45,70)          0.872          estimate D2E/DX2                !
 ! D203  D(44,43,45,47)         -1.8502         estimate D2E/DX2                !
 ! D204  D(44,43,45,70)       -179.5854         estimate D2E/DX2                !
 ! D205  D(43,44,46,48)          4.8014         estimate D2E/DX2                !
 ! D206  D(43,44,46,67)       -174.6608         estimate D2E/DX2                !
 ! D207  D(66,44,46,48)       -177.7539         estimate D2E/DX2                !
 ! D208  D(66,44,46,67)          2.7839         estimate D2E/DX2                !
 ! D209  D(43,45,47,48)          4.4845         estimate D2E/DX2                !
 ! D210  D(43,45,47,69)       -175.041          estimate D2E/DX2                !
 ! D211  D(70,45,47,48)       -177.774          estimate D2E/DX2                !
 ! D212  D(70,45,47,69)          2.7004         estimate D2E/DX2                !
 ! D213  D(44,46,48,47)         -2.157          estimate D2E/DX2                !
 ! D214  D(44,46,48,68)        177.8312         estimate D2E/DX2                !
 ! D215  D(67,46,48,47)        177.3024         estimate D2E/DX2                !
 ! D216  D(67,46,48,68)         -2.7094         estimate D2E/DX2                !
 ! D217  D(45,47,48,46)         -2.5052         estimate D2E/DX2                !
 ! D218  D(45,47,48,68)        177.5066         estimate D2E/DX2                !
 ! D219  D(69,47,48,46)        177.0205         estimate D2E/DX2                !
 ! D220  D(69,47,48,68)         -2.9678         estimate D2E/DX2                !
 ! D221  D(24,50,75,51)       -173.8659         estimate D2E/DX2                !
 ! D222  D(24,50,75,52)          4.6274         estimate D2E/DX2                !
 ! D223  D(80,50,75,51)          6.2691         estimate D2E/DX2                !
 ! D224  D(80,50,75,52)       -175.2377         estimate D2E/DX2                !
 ! D225  D(24,50,80,76)        171.4646         estimate D2E/DX2                !
 ! D226  D(75,50,80,76)         -8.6618         estimate D2E/DX2                !
 ! D227  D(72,51,75,50)        179.3614         estimate D2E/DX2                !
 ! D228  D(72,51,75,52)          0.8595         estimate D2E/DX2                !
 ! D229  D(76,51,75,50)          0.1811         estimate D2E/DX2                !
 ! D230  D(76,51,75,52)       -178.3208         estimate D2E/DX2                !
 ! D231  D(72,51,76,77)         -6.1335         estimate D2E/DX2                !
 ! D232  D(72,51,76,80)        174.2855         estimate D2E/DX2                !
 ! D233  D(75,51,76,77)        173.0499         estimate D2E/DX2                !
 ! D234  D(75,51,76,80)         -6.5311         estimate D2E/DX2                !
 ! D235  D(6,53,74,54)         173.674          estimate D2E/DX2                !
 ! D236  D(6,53,74,55)          -4.7972         estimate D2E/DX2                !
 ! D237  D(82,53,74,54)         -6.1123         estimate D2E/DX2                !
 ! D238  D(82,53,74,55)        175.4164         estimate D2E/DX2                !
 ! D239  D(6,53,82,78)        -171.2904         estimate D2E/DX2                !
 ! D240  D(74,53,82,78)          8.5088         estimate D2E/DX2                !
 ! D241  D(71,54,74,53)       -179.4919         estimate D2E/DX2                !
 ! D242  D(71,54,74,55)         -1.0118         estimate D2E/DX2                !
 ! D243  D(78,54,74,53)         -0.2669         estimate D2E/DX2                !
 ! D244  D(78,54,74,55)        178.2131         estimate D2E/DX2                !
 ! D245  D(71,54,78,79)          6.0814         estimate D2E/DX2                !
 ! D246  D(71,54,78,82)       -174.2744         estimate D2E/DX2                !
 ! D247  D(74,54,78,79)       -173.1464         estimate D2E/DX2                !
 ! D248  D(74,54,78,82)          6.4978         estimate D2E/DX2                !
 ! D249  D(51,76,80,50)          8.6917         estimate D2E/DX2                !
 ! D250  D(51,76,80,81)       -170.8575         estimate D2E/DX2                !
 ! D251  D(77,76,80,50)       -170.8958         estimate D2E/DX2                !
 ! D252  D(77,76,80,81)          9.555          estimate D2E/DX2                !
 ! D253  D(54,78,82,53)         -8.5895         estimate D2E/DX2                !
 ! D254  D(54,78,82,83)        169.9312         estimate D2E/DX2                !
 ! D255  D(79,78,82,53)        171.0603         estimate D2E/DX2                !
 ! D256  D(79,78,82,83)        -10.419          estimate D2E/DX2                !
 --------------------------------------------------------------------------------
 Trust Radius=3.00D-01 FncErr=1.00D-07 GrdErr=1.00D-06 EigMax=2.50D+02 EigMin=1.00D-04
 Number of steps in this run=    498 maximum allowed number of steps=    498.
 GradGradGradGradGradGradGradGradGradGradGradGradGradGradGradGradGradGrad

 Stoichiometry    C46H14F15N6NiO(1-)
 Framework group  C1[X(C46H14F15N6NiO)]
 Deg. of freedom   243
 Full point group                 C1      NOp   1
 Largest Abelian subgroup         C1      NOp   1
 Largest concise Abelian subgroup C1      NOp   1
                         Standard orientation:                         
 ---------------------------------------------------------------------
 Center     Atomic      Atomic             Coordinates (Angstroms)
 Number     Number       Type             X           Y           Z
 ---------------------------------------------------------------------
      1          6           0       -1.217485   -2.544940   -1.046245
      2          6           0        1.177749    2.592355   -0.259575
      3          6           0        3.433302    2.388121    0.337577
      4          6           0        2.743704    1.038461    0.239789
      5          6           0        2.663838   -1.264177    0.054114
      6          6           0        2.396842   -3.263322   -0.853739
      7          6           0        1.220014   -2.553032   -1.026325
      8          6           0       -1.181596    2.630150   -0.170345
      9          6           0       -2.530910    3.334179    0.061839
     10          6           0       -2.671960   -1.254364    0.024583
     11          6           0       -3.256513   -2.505955   -0.114788
     12          6           0       -2.747780    1.049062    0.269078
     13          1           0       -4.202120   -2.823885    0.267425
     14          1           0       -2.705657    4.385516   -0.008026
     15          1           0        4.440613    2.568380    0.648788
     16          7           0        1.319608   -1.346569   -0.463345
     17          7           0       -1.317368   -1.337130   -0.475660
     18          7           0        1.329732    1.272407   -0.135221
     19          7           0       -1.330065    1.284404   -0.073674
     20          6           0        2.527537    3.306740   -0.035774
     21          1           0        2.702582    4.355137   -0.131561
     22          6           0        3.254523   -2.509080   -0.077907
     23          1           0        4.193307   -2.825463    0.321872
     24          6           0       -2.390467   -3.260479   -0.882411
     25          6           0       -3.443254    2.400161    0.378334
     26          1           0       -4.460699    2.570073    0.655000
     27          6           0        0.007612   -3.094274   -1.699790
     28          6           0       -3.317673   -0.141752    0.467993
     29          6           0        3.309812   -0.146498    0.481573
     30          6           0        0.002462    3.281103   -0.456271
     31          6           0        4.661700   -0.277733    1.179317
     32          6           0        5.803860    0.006549    0.441781
     33          6           0        4.758884   -0.683216    2.519898
     34          6           0        7.063080   -0.172265    1.015002
     35          6           0        6.019936   -0.769624    3.124802
     36          6           0        7.173679   -0.539516    2.362898
     37          6           0        0.013420    4.752263   -0.914625
     38          6           0        0.262660    5.083911   -2.262520
     39          6           0       -0.226133    5.761567    0.016595
     40          6           0        0.224919    6.428405   -2.668189
     41          6           0       -0.170581    7.105137   -0.373663
     42          6           0        0.031746    7.439199   -1.718359
     43          6           0       -4.683271   -0.278536    1.127014
     44          6           0       -5.812334    0.000254    0.367426
     45          6           0       -4.799583   -0.684423    2.462861
     46          6           0       -7.080257   -0.180799    0.920102
     47          6           0       -6.068354   -0.771928    3.047412
     48          6           0       -7.210730   -0.545192    2.267117
     49         28           0        0.005307   -0.033228   -0.305554
     50          6           0       -2.686701   -4.658145   -1.404359
     51          6           0       -3.785324   -6.718345   -1.985350
     52          1           0       -4.846853   -4.716899   -1.429517
     53          6           0        2.701566   -4.658790   -1.370071
     54          6           0        3.760385   -6.775689   -1.800186
     55          1           0        4.808690   -4.878621   -0.937674
     56          9           0        3.644183   -0.946118    3.239199
     57          9           0        6.124452   -1.064631    4.439181
     58          9           0        8.392230   -0.671253    2.925598
     59          9           0        8.169711   -0.001084    0.264111
     60          9           0        5.685676    0.405097   -0.841296
     61          9           0        0.490839    4.113854   -3.175453
     62          9           0        0.364832    6.749736   -3.973337
     63          9           0        0.040538    8.735069   -2.097700
     64          9           0       -0.302225    8.079215    0.550641
     65          9           0       -0.464885    5.439125    1.304364
     66          9           0       -5.674407    0.394888   -0.915620
     67          9           0       -8.175725   -0.014612    0.151378
     68          9           0       -8.436897   -0.677218    2.811819
     69          9           0       -6.191382   -1.064209    4.360301
     70          9           0       -3.694637   -0.945633    3.197148
     71          1           0        4.567778   -7.474906   -1.830297
     72          1           0       -4.618592   -7.363389   -2.164528
     73          8           0        0.013060   -3.965624   -2.610360
     74          6           0        3.897108   -5.309476   -1.305442
     75          6           0       -3.912988   -5.224279   -1.578187
     76          6           0       -2.485680   -7.119022   -2.071002
     77          1           0       -2.162266   -8.121465   -2.230448
     78          6           0        2.485212   -7.074672   -2.176935
     79          1           0        2.137594   -8.043833   -2.449447
     80          7           0       -1.392255   -5.757844   -1.871066
     81          1           0       -0.760582   -6.479288   -2.154801
     82          7           0        1.467050   -5.642962   -2.147519
     83          1           0        0.869620   -6.300739   -2.606220
 ---------------------------------------------------------------------
 Rotational constants (GHZ):           0.0289890           0.0252615           0.0165964
 General basis read from cards:  (5D, 7F)
 ======================================================================================================
                                       Pseudopotential Parameters
 ======================================================================================================
  Center     Atomic      Valence      Angular      Power
  Number     Number     Electrons     Momentum     of R      Exponent        Coefficient   SO-Coeffient
 ======================================================================================================
    1          6
                                   No pseudopotential on this center.
    2          6
                                   No pseudopotential on this center.
    3          6
                                   No pseudopotential on this center.
    4          6
                                   No pseudopotential on this center.
    5          6
                                   No pseudopotential on this center.
    6          6
                                   No pseudopotential on this center.
    7          6
                                   No pseudopotential on this center.
    8          6
                                   No pseudopotential on this center.
    9          6
                                   No pseudopotential on this center.
   10          6
                                   No pseudopotential on this center.
   11          6
                                   No pseudopotential on this center.
   12          6
                                   No pseudopotential on this center.
   13          1
                                   No pseudopotential on this center.
   14          1
                                   No pseudopotential on this center.
   15          1
                                   No pseudopotential on this center.
   16          7
                                   No pseudopotential on this center.
   17          7
                                   No pseudopotential on this center.
   18          7
                                   No pseudopotential on this center.
   19          7
                                   No pseudopotential on this center.
   20          6
                                   No pseudopotential on this center.
   21          1
                                   No pseudopotential on this center.
   22          6
                                   No pseudopotential on this center.
   23          1
                                   No pseudopotential on this center.
   24          6
                                   No pseudopotential on this center.
   25          6
                                   No pseudopotential on this center.
   26          1
                                   No pseudopotential on this center.
   27          6
                                   No pseudopotential on this center.
   28          6
                                   No pseudopotential on this center.
   29          6
                                   No pseudopotential on this center.
   30          6
                                   No pseudopotential on this center.
   31          6
                                   No pseudopotential on this center.
   32          6
                                   No pseudopotential on this center.
   33          6
                                   No pseudopotential on this center.
   34          6
                                   No pseudopotential on this center.
   35          6
                                   No pseudopotential on this center.
   36          6
                                   No pseudopotential on this center.
   37          6
                                   No pseudopotential on this center.
   38          6
                                   No pseudopotential on this center.
   39          6
                                   No pseudopotential on this center.
   40          6
                                   No pseudopotential on this center.
   41          6
                                   No pseudopotential on this center.
   42          6
                                   No pseudopotential on this center.
   43          6
                                   No pseudopotential on this center.
   44          6
                                   No pseudopotential on this center.
   45          6
                                   No pseudopotential on this center.
   46          6
                                   No pseudopotential on this center.
   47          6
                                   No pseudopotential on this center.
   48          6
                                   No pseudopotential on this center.
   49         28           18
                                      D and up 
                                                     1      469.9324331      -10.00000000    0.00000000
                                                     2       85.4236411      -69.40848050    0.00000000
                                                     2       21.2674984      -12.09510200    0.00000000
                                      S - D
                                                     0      162.1686097        3.00000000    0.00000000
                                                     1      176.5333232       22.02536180    0.00000000
                                                     2       68.9562010      443.01810880    0.00000000
                                                     2       13.5792838      145.56964110    0.00000000
                                      P - D
                                                     0       69.0181506        5.00000000    0.00000000
                                                     1      275.5955596        4.98828240    0.00000000
                                                     2       47.1315453      256.69458530    0.00000000
                                                     2       12.9874075       78.47544500    0.00000000
   50          6
                                   No pseudopotential on this center.
   51          6
                                   No pseudopotential on this center.
   52          1
                                   No pseudopotential on this center.
   53          6
                                   No pseudopotential on this center.
   54          6
                                   No pseudopotential on this center.
   55          1
                                   No pseudopotential on this center.
   56          9
                                   No pseudopotential on this center.
   57          9
                                   No pseudopotential on this center.
   58          9
                                   No pseudopotential on this center.
   59          9
                                   No pseudopotential on this center.
   60          9
                                   No pseudopotential on this center.
   61          9
                                   No pseudopotential on this center.
   62          9
                                   No pseudopotential on this center.
   63          9
                                   No pseudopotential on this center.
   64          9
                                   No pseudopotential on this center.
   65          9
                                   No pseudopotential on this center.
   66          9
                                   No pseudopotential on this center.
   67          9
                                   No pseudopotential on this center.
   68          9
                                   No pseudopotential on this center.
   69          9
                                   No pseudopotential on this center.
   70          9
                                   No pseudopotential on this center.
   71          1
                                   No pseudopotential on this center.
   72          1
                                   No pseudopotential on this center.
   73          8
                                   No pseudopotential on this center.
   74          6
                                   No pseudopotential on this center.
   75          6
                                   No pseudopotential on this center.
   76          6
                                   No pseudopotential on this center.
   77          1
                                   No pseudopotential on this center.
   78          6
                                   No pseudopotential on this center.
   79          1
                                   No pseudopotential on this center.
   80          7
                                   No pseudopotential on this center.
   81          1
                                   No pseudopotential on this center.
   82          7
                                   No pseudopotential on this center.
   83          1
                                   No pseudopotential on this center.
 ======================================================================================================
 There are  1386 symmetry adapted cartesian basis functions of A   symmetry.
 There are  1316 symmetry adapted basis functions of A   symmetry.
  1316 basis functions,  2326 primitive gaussians,  1386 cartesian basis functions
   247 alpha electrons      247 beta electrons
       nuclear repulsion energy     11123.5217473401 Hartrees.
 NAtoms=   83 NActive=   83 NUniq=   83 SFac= 1.00D+00 NAtFMM=   60 NAOKFM=T Big=T
 Integral buffers will be    131072 words long.
 Raffenetti 2 integral format.
 Two-electron integral symmetry is turned on.
 One-electron integrals computed using PRISM.
   1 Symmetry operations used in ECPInt.
 ECPInt:  NShTT=   76245 NPrTT=  409437 LenC2=   52173 LenP2D=  146714.
 LDataN:  DoStor=T MaxTD1= 4 Len=   56
 NBasis=  1316 RedAO= T EigKep=  1.26D-06  NBF=  1316
 NBsUse=  1297 1.00D-06 EigRej=  9.91D-07 NBFU=  1297
 ExpMin= 2.40D-02 ExpMax= 7.00D+03 ExpMxC= 1.05D+03 IAcc=3 IRadAn=         5 AccDes= 0.00D+00
 Harris functional with IExCor=  402 and IRadAn=       5 diagonalized for initial guess.
 HarFok:  IExCor=  402 AccDes= 0.00D+00 IRadAn=         5 IDoV= 1 UseB2=F ITyADJ=14
 ICtDFT=  3500011 ScaDFX=  1.000000  1.000000  1.000000  1.000000
 FoFCou: FMM=F IPFlag=           0 FMFlag=      100000 FMFlg1=        2001
         NFxFlg=           0 DoJE=T BraDBF=F KetDBF=T FulRan=T
         wScrn=  0.000000 ICntrl=       500 IOpCl=  0 I1Cent=   200000004 NGrid=           0
         NMat0=    1 NMatS0=      1 NMatT0=    0 NMatD0=    1 NMtDS0=    0 NMtDT0=    0
 Petite list used in FoFCou.
 Requested convergence on RMS density matrix=1.00D-08 within1000 cycles.
 Requested convergence on MAX density matrix=1.00D-06.
 Requested convergence on             energy=1.00D-06.
 No special actions if energy rises.
 EnCoef did     3 forward-backward iterations
 EnCoef did   100 forward-backward iterations
 EnCoef did   100 forward-backward iterations
 EnCoef did     3 forward-backward iterations
 Restarting incremental Fock formation.
 SCF Done:  E(RB3LYP) =  -3831.66721945     A.U. after   25 cycles
            NFock= 25  Conv=0.35D-08     -V/T= 2.0236

 **********************************************************************

            Population analysis using the SCF Density.

 **********************************************************************

 Orbital symmetries:
       Occupied  (A) (A) (A) (A) (A) (A) (A) (A) (A) (A) (A) (A)
                 (A) (A) (A) (A) (A) (A) (A) (A) (A) (A) (A) (A)
                 (A) (A) (A) (A) (A) (A) (A) (A) (A) (A) (A) (A)
                 (A) (A) (A) (A) (A) (A) (A) (A) (A) (A) (A) (A)
                 (A) (A) (A) (A) (A) (A) (A) (A) (A) (A) (A) (A)
                 (A) (A) (A) (A) (A) (A) (A) (A) (A) (A) (A) (A)
                 (A) (A) (A) (A) (A) (A) (A) (A) (A) (A) (A) (A)
                 (A) (A) (A) (A) (A) (A) (A) (A) (A) (A) (A) (A)
                 (A) (A) (A) (A) (A) (A) (A) (A) (A) (A) (A) (A)
                 (A) (A) (A) (A) (A) (A) (A) (A) (A) (A) (A) (A)
                 (A) (A) (A) (A) (A) (A) (A) (A) (A) (A) (A) (A)
                 (A) (A) (A) (A) (A) (A) (A) (A) (A) (A) (A) (A)
                 (A) (A) (A) (A) (A) (A) (A) (A) (A) (A) (A) (A)
                 (A) (A) (A) (A) (A) (A) (A) (A) (A) (A) (A) (A)
                 (A) (A) (A) (A) (A) (A) (A) (A) (A) (A) (A) (A)
                 (A) (A) (A) (A) (A) (A) (A) (A) (A) (A) (A) (A)
                 (A) (A) (A) (A) (A) (A) (A) (A) (A) (A) (A) (A)
                 (A) (A) (A) (A) (A) (A) (A) (A) (A) (A) (A) (A)
                 (A) (A) (A) (A) (A) (A) (A) (A) (A) (A) (A) (A)
                 (A) (A) (A) (A) (A) (A) (A) (A) (A) (A) (A) (A)
                 (A) (A) (A) (A) (A) (A) (A)
       Virtual   (A) (A) (A) (A) (A) (A) (A) (A) (A) (A) (A) (A)
                 (A) (A) (A) (A) (A) (A) (A) (A) (A) (A) (A) (A)
                 (A) (A) (A) (A) (A) (A) (A) (A) (A) (A) (A) (A)
                 (A) (A) (A) (A) (A) (A) (A) (A) (A) (A) (A) (A)
                 (A) (A) (A) (A) (A) (A) (A) (A) (A) (A) (A) (A)
                 (A) (A) (A) (A) (A) (A) (A) (A) (A) (A) (A) (A)
                 (A) (A) (A) (A) (A) (A) (A) (A) (A) (A) (A) (A)
                 (A) (A) (A) (A) (A) (A) (A) (A) (A) (A) (A) (A)
                 (A) (A) (A) (A) (A) (A) (A) (A) (A) (A) (A) (A)
                 (A) (A) (A) (A) (A) (A) (A) (A) (A) (A) (A) (A)
                 (A) (A) (A) (A) (A) (A) (A) (A) (A) (A) (A) (A)
                 (A) (A) (A) (A) (A) (A) (A) (A) (A) (A) (A) (A)
                 (A) (A) (A) (A) (A) (A) (A) (A) (A) (A) (A) (A)
                 (A) (A) (A) (A) (A) (A) (A) (A) (A) (A) (A) (A)
                 (A) (A) (A) (A) (A) (A) (A) (A) (A) (A) (A) (A)
                 (A) (A) (A) (A) (A) (A) (A) (A) (A) (A) (A) (A)
                 (A) (A) (A) (A) (A) (A) (A) (A) (A) (A) (A) (A)
                 (A) (A) (A) (A) (A) (A) (A) (A) (A) (A) (A) (A)
                 (A) (A) (A) (A) (A) (A) (A) (A) (A) (A) (A) (A)
                 (A) (A) (A) (A) (A) (A) (A) (A) (A) (A) (A) (A)
                 (A) (A) (A) (A) (A) (A) (A) (A) (A) (A) (A) (A)
                 (A) (A) (A) (A) (A) (A) (A) (A) (A) (A) (A) (A)
                 (A) (A) (A) (A) (A) (A) (A) (A) (A) (A) (A) (A)
                 (A) (A) (A) (A) (A) (A) (A) (A) (A) (A) (A) (A)
                 (A) (A) (A) (A) (A) (A) (A) (A) (A) (A) (A) (A)
                 (A) (A) (A) (A) (A) (A) (A) (A) (A) (A) (A) (A)
                 (A) (A) (A) (A) (A) (A) (A) (A) (A) (A) (A) (A)
                 (A) (A) (A) (A) (A) (A) (A) (A) (A) (A) (A) (A)
                 (A) (A) (A) (A) (A) (A) (A) (A) (A) (A) (A) (A)
                 (A) (A) (A) (A) (A) (A) (A) (A) (A) (A) (A) (A)
                 (A) (A) (A) (A) (A) (A) (A) (A) (A) (A) (A) (A)
                 (A) (A) (A) (A) (A) (A) (A) (A) (A) (A) (A) (A)
                 (A) (A) (A) (A) (A) (A) (A) (A) (A) (A) (A) (A)
                 (A) (A) (A) (A) (A) (A) (A) (A) (A) (A) (A) (A)
                 (A) (A) (A) (A) (A) (A) (A) (A) (A) (A) (A) (A)
                 (A) (A) (A) (A) (A) (A) (A) (A) (A) (A) (A) (A)
                 (A) (A) (A) (A) (A) (A) (A) (A) (A) (A) (A) (A)
                 (A) (A) (A) (A) (A) (A) (A) (A) (A) (A) (A) (A)
                 (A) (A) (A) (A) (A) (A) (A) (A) (A) (A) (A) (A)
                 (A) (A) (A) (A) (A) (A) (A) (A) (A) (A) (A) (A)
                 (A) (A) (A) (A) (A) (A) (A) (A) (A) (A) (A) (A)
                 (A) (A) (A) (A) (A) (A) (A) (A) (A) (A) (A) (A)
                 (A) (A) (A) (A) (A) (A) (A) (A) (A) (A) (A) (A)
                 (A) (A) (A) (A) (A) (A) (A) (A) (A) (A) (A) (A)
                 (A) (A) (A) (A) (A) (A) (A) (A) (A) (A) (A) (A)
                 (A) (A) (A) (A) (A) (A) (A) (A) (A) (A) (A) (A)
                 (A) (A) (A) (A) (A) (A) (A) (A) (A) (A) (A) (A)
                 (A) (A) (A) (A) (A) (A) (A) (A) (A) (A) (A) (A)
                 (A) (A) (A) (A) (A) (A) (A) (A) (A) (A) (A) (A)
                 (A) (A) (A) (A) (A) (A) (A) (A) (A) (A) (A) (A)
                 (A) (A) (A) (A) (A) (A) (A) (A) (A) (A) (A) (A)
                 (A) (A) (A) (A) (A) (A) (A) (A) (A) (A) (A) (A)
                 (A) (A) (A) (A) (A) (A) (A) (A) (A) (A) (A) (A)
                 (A) (A) (A) (A) (A) (A) (A) (A) (A) (A) (A) (A)
                 (A) (A) (A) (A) (A) (A) (A) (A) (A) (A) (A) (A)
                 (A) (A) (A) (A) (A) (A) (A) (A) (A) (A) (A) (A)
                 (A) (A) (A) (A) (A) (A) (A) (A) (A) (A) (A) (A)
                 (A) (A) (A) (A) (A) (A) (A) (A) (A) (A) (A) (A)
                 (A) (A) (A) (A) (A) (A) (A) (A) (A) (A) (A) (A)
                 (A) (A) (A) (A) (A) (A) (A) (A) (A) (A) (A) (A)
                 (A) (A) (A) (A) (A) (A) (A) (A) (A) (A) (A) (A)
                 (A) (A) (A) (A) (A) (A) (A) (A) (A) (A) (A) (A)
                 (A) (A) (A) (A) (A) (A) (A) (A) (A) (A) (A) (A)
                 (A) (A) (A) (A) (A) (A) (A) (A) (A) (A) (A) (A)
                 (A) (A) (A) (A) (A) (A) (A) (A) (A) (A) (A) (A)
                 (A) (A) (A) (A) (A) (A) (A) (A) (A) (A) (A) (A)
                 (A) (A) (A) (A) (A) (A) (A) (A) (A) (A) (A) (A)
                 (A) (A) (A) (A) (A) (A) (A) (A) (A) (A) (A) (A)
                 (A) (A) (A) (A) (A) (A) (A) (A) (A) (A) (A) (A)
                 (A) (A) (A) (A) (A) (A) (A) (A) (A) (A) (A) (A)
                 (A) (A) (A) (A) (A) (A) (A) (A) (A) (A) (A) (A)
                 (A) (A) (A) (A) (A) (A) (A) (A) (A) (A) (A) (A)
                 (A) (A) (A) (A) (A) (A) (A) (A) (A) (A) (A) (A)
                 (A) (A) (A) (A) (A) (A) (A) (A) (A) (A) (A) (A)
                 (A) (A) (A) (A) (A) (A) (A) (A) (A) (A) (A) (A)
                 (A) (A) (A) (A) (A) (A) (A) (A) (A) (A) (A) (A)
                 (A) (A) (A) (A) (A) (A) (A) (A) (A) (A) (A) (A)
                 (A) (A) (A) (A) (A) (A) (A) (A) (A) (A) (A) (A)
                 (A) (A) (A) (A) (A) (A) (A) (A) (A) (A) (A) (A)
                 (A) (A) (A) (A) (A) (A) (A) (A) (A) (A) (A) (A)
                 (A) (A) (A) (A) (A) (A) (A) (A) (A) (A) (A) (A)
                 (A) (A) (A) (A) (A) (A) (A) (A) (A) (A) (A) (A)
                 (A) (A) (A) (A) (A) (A) (A) (A) (A) (A) (A) (A)
                 (A) (A) (A) (A) (A) (A) (A) (A) (A) (A) (A) (A)
                 (A) (A) (A) (A) (A) (A) (A) (A) (A) (A) (A) (A)
                 (A) (A) (A) (A) (A) (A) (A) (A) (A) (A) (A) (A)
                 (A) (A) (A) (A) (A) (A) (A) (A) (A) (A) (A) (A)
                 (A) (A) (A) (A) (A) (A)
 The electronic state is 1-A.
 Alpha  occ. eigenvalues --  -24.70297 -24.70248 -24.70188 -24.69691 -24.69667
 Alpha  occ. eigenvalues --  -24.69655 -24.69623 -24.69602 -24.69504 -24.68799
 Alpha  occ. eigenvalues --  -24.68768 -24.68738 -24.68681 -24.68609 -24.68481
 Alpha  occ. eigenvalues --  -19.03773 -14.28035 -14.27939 -14.27050 -14.27043
 Alpha  occ. eigenvalues --  -14.26796 -14.26563 -10.26845 -10.26784 -10.26655
 Alpha  occ. eigenvalues --  -10.26281 -10.26195 -10.26186 -10.26134 -10.26094
 Alpha  occ. eigenvalues --  -10.26062 -10.26021 -10.25887 -10.25766 -10.25691
 Alpha  occ. eigenvalues --  -10.25638 -10.25530 -10.18815 -10.18783 -10.18714
 Alpha  occ. eigenvalues --  -10.18563 -10.18542 -10.18170 -10.16467 -10.16338
 Alpha  occ. eigenvalues --  -10.15717 -10.15618 -10.14171 -10.14057 -10.13605
 Alpha  occ. eigenvalues --  -10.13602 -10.13191 -10.13060 -10.12980 -10.12959
 Alpha  occ. eigenvalues --  -10.12849 -10.12845 -10.12821 -10.12541 -10.12495
 Alpha  occ. eigenvalues --  -10.11771 -10.11655 -10.11493 -10.11454 -10.11136
 Alpha  occ. eigenvalues --  -10.11066 -10.10003 -10.09959  -3.95511  -2.57301
 Alpha  occ. eigenvalues --   -2.57200  -2.51625  -1.22055  -1.22016  -1.21910
 Alpha  occ. eigenvalues --   -1.21064  -1.21015  -1.20940  -1.20489  -1.20445
 Alpha  occ. eigenvalues --   -1.20336  -1.19607  -1.19548  -1.19525  -1.19316
 Alpha  occ. eigenvalues --   -1.19260  -1.19150  -0.92546  -0.89013  -0.88033
 Alpha  occ. eigenvalues --   -0.87726  -0.86128  -0.85846  -0.85691  -0.85341
 Alpha  occ. eigenvalues --   -0.78184  -0.77368  -0.77061  -0.76476  -0.75820
 Alpha  occ. eigenvalues --   -0.73779  -0.73750  -0.73432  -0.72519  -0.71684
 Alpha  occ. eigenvalues --   -0.71322  -0.71023  -0.70296  -0.70092  -0.69388
 Alpha  occ. eigenvalues --   -0.67919  -0.66995  -0.65662  -0.64920  -0.62987
 Alpha  occ. eigenvalues --   -0.62526  -0.62189  -0.62080  -0.61855  -0.61794
 Alpha  occ. eigenvalues --   -0.61631  -0.61007  -0.57923  -0.57627  -0.55173
 Alpha  occ. eigenvalues --   -0.55064  -0.54919  -0.54382  -0.54329  -0.54067
 Alpha  occ. eigenvalues --   -0.53514  -0.53395  -0.53341  -0.52983  -0.51630
 Alpha  occ. eigenvalues --   -0.50936  -0.50626  -0.50311  -0.50269  -0.50118
 Alpha  occ. eigenvalues --   -0.49954  -0.49724  -0.49643  -0.49386  -0.48685
 Alpha  occ. eigenvalues --   -0.47920  -0.47837  -0.47658  -0.47594  -0.47309
 Alpha  occ. eigenvalues --   -0.47297  -0.47200  -0.47026  -0.46914  -0.46164
[...]
 Alpha virt. eigenvalues --    0.81578   0.81636   0.82683   0.82975   0.83340
 Alpha virt. eigenvalues --    0.83467   0.83554   0.84189   0.84336   0.84630
 Alpha virt. eigenvalues --    0.84816   0.85002   0.86249   0.86402   0.86584
 Alpha virt. eigenvalues --    0.87075   0.87598   0.87958   0.88204   0.88239
 Alpha virt. eigenvalues --    0.88379   0.88527   0.88617   0.89290   0.89392
 Alpha virt. eigenvalues --    0.89593   0.89643   0.89992   0.90395   0.90445
 Alpha virt. eigenvalues --    0.90917   0.91777   0.91875   0.92115   0.92675
 Alpha virt. eigenvalues --    0.93189   0.93461   0.93654   0.94301   0.94782
 Alpha virt. eigenvalues --    0.95002   0.95374   0.95554   0.95816   0.96469
 Alpha virt. eigenvalues --    0.96647   0.96991   0.97272   0.97340   0.98107
 Alpha virt. eigenvalues --    0.98154   0.98327   0.98392   0.98802   0.99400
 Alpha virt. eigenvalues --    0.99816   0.99958   1.00025   1.00328   1.00377
 Alpha virt. eigenvalues --    1.00671   1.01152   1.01332   1.01671   1.01742
 Alpha virt. eigenvalues --    1.01802   1.02131   1.02333   1.02803   1.03262
 Alpha virt. eigenvalues --    1.03661   1.04022   1.04342   1.04482   1.04906
 Alpha virt. eigenvalues --    1.05272   1.06062   1.06303   1.06677   1.06934
 Alpha virt. eigenvalues --    1.07239   1.07976   1.08136   1.08312   1.08869
 Alpha virt. eigenvalues --    1.09249   1.09545   1.10026   1.10421   1.11962
 Alpha virt. eigenvalues --    1.13034   1.13975   1.14555   1.14988   1.15343
 Alpha virt. eigenvalues --    1.16197   1.16283   1.16505   1.16956   1.17784
 Alpha virt. eigenvalues --    1.17906   1.18254   1.18887   1.19235   1.19566
 Alpha virt. eigenvalues --    1.20105   1.20267   1.20660   1.21257   1.21364
 Alpha virt. eigenvalues --    1.21777   1.21907   1.22309   1.22541   1.22849
 Alpha virt. eigenvalues --    1.23058   1.23535   1.23761   1.23932   1.24044
 Alpha virt. eigenvalues --    1.24159   1.24623   1.24705   1.25080   1.25534
 Alpha virt. eigenvalues --    1.26028   1.26132   1.26356   1.27919   1.28224
 Alpha virt. eigenvalues --    1.28520   1.28867   1.29066   1.29167   1.29194
 Alpha virt. eigenvalues --    1.29906   1.30201   1.30554   1.30789   1.30988
 Alpha virt. eigenvalues --    1.31391   1.31642   1.31890   1.32671   1.32895
 Alpha virt. eigenvalues --    1.33689   1.33767   1.33846   1.33963   1.34050
 Alpha virt. eigenvalues --    1.34298   1.34329   1.34671   1.35032   1.35140
 Alpha virt. eigenvalues --    1.35441   1.35814   1.35938   1.36389   1.36471
 Alpha virt. eigenvalues --    1.36598   1.36816   1.37139   1.37473   1.37693
 Alpha virt. eigenvalues --    1.38026   1.38123   1.38485   1.38697   1.39003
 Alpha virt. eigenvalues --    1.39026   1.39317   1.39615   1.40116   1.40882
 Alpha virt. eigenvalues --    1.41074   1.41430   1.41548   1.41940   1.42050
 Alpha virt. eigenvalues --    1.42722   1.42901   1.43980   1.44381   1.44500
 Alpha virt. eigenvalues --    1.45047   1.45159   1.45491   1.45848   1.46153
 Alpha virt. eigenvalues --    1.46572   1.46776   1.47075   1.47732   1.48102
 Alpha virt. eigenvalues --    1.48331   1.48953   1.49110   1.49406   1.50056
 Alpha virt. eigenvalues --    1.50346   1.50577   1.50989   1.51295   1.51860
 Alpha virt. eigenvalues --    1.52480   1.53026   1.54031   1.54486   1.55194
 Alpha virt. eigenvalues --    1.55395   1.55570   1.55866   1.56208   1.57142
 Alpha virt. eigenvalues --    1.57699   1.58073   1.58190   1.59166   1.59757
 Alpha virt. eigenvalues --    1.59962   1.61538   1.61898   1.62959   1.63180
 Alpha virt. eigenvalues --    1.63428   1.64200   1.64476   1.64939   1.65216
 Alpha virt. eigenvalues --    1.65865   1.66047   1.66080   1.66151   1.66371
 Alpha virt. eigenvalues --    1.66402   1.66755   1.67111   1.67222   1.67678
 Alpha virt. eigenvalues --    1.68002   1.68233   1.68453   1.68636   1.68727
 Alpha virt. eigenvalues --    1.69088   1.69812   1.70190   1.70314   1.70922
 Alpha virt. eigenvalues --    1.71223   1.71495   1.71700   1.72573   1.72936
 Alpha virt. eigenvalues --    1.73103   1.73264   1.73552   1.73628   1.73792
 Alpha virt. eigenvalues --    1.74221   1.74379   1.74511   1.75244   1.75395
 Alpha virt. eigenvalues --    1.75670   1.75888   1.76082   1.76286   1.76409
 Alpha virt. eigenvalues --    1.77005   1.77144   1.77409   1.77743   1.77918
 Alpha virt. eigenvalues --    1.78220   1.78544   1.78609   1.78885   1.79054
 Alpha virt. eigenvalues --    1.79210   1.79480   1.79590   1.80594   1.80802
 Alpha virt. eigenvalues --    1.80979   1.81574   1.81645   1.81828   1.82055
 Alpha virt. eigenvalues --    1.82407   1.82589   1.82854   1.83083   1.83172
 Alpha virt. eigenvalues --    1.83471   1.83704   1.83920   1.84047   1.84260
 Alpha virt. eigenvalues --    1.84470   1.84575   1.84846   1.85139   1.85223
 Alpha virt. eigenvalues --    1.85375   1.85456   1.85677   1.85910   1.86119
 Alpha virt. eigenvalues --    1.86172   1.86447   1.86732   1.86917   1.87111
 Alpha virt. eigenvalues --    1.87335   1.87645   1.87741   1.87877   1.88313
 Alpha virt. eigenvalues --    1.88363   1.88700   1.89182   1.89250   1.89511
 Alpha virt. eigenvalues --    1.89635   1.90143   1.90287   1.90609   1.90894
 Alpha virt. eigenvalues --    1.90996   1.91514   1.91809   1.91943   1.92042
 Alpha virt. eigenvalues --    1.92428   1.93045   1.93242   1.93394   1.93729
 Alpha virt. eigenvalues --    1.93772   1.93969   1.94323   1.94465   1.94768
 Alpha virt. eigenvalues --    1.94942   1.95139   1.95657   1.95662   1.96619
 Alpha virt. eigenvalues --    1.97083   1.97459   1.97588   1.97797   1.98225
 Alpha virt. eigenvalues --    1.98385   1.98744   1.98819   1.99266   1.99327
 Alpha virt. eigenvalues --    1.99595   1.99619   1.99917   2.01042   2.01183
 Alpha virt. eigenvalues --    2.01465   2.01750   2.02004   2.02357   2.02594
 Alpha virt. eigenvalues --    2.02966   2.03803   2.04093   2.04981   2.05815
 Alpha virt. eigenvalues --    2.06049   2.06992   2.07331   2.07850   2.07890
 Alpha virt. eigenvalues --    2.08341   2.08401   2.08542   2.08824   2.09295
 Alpha virt. eigenvalues --    2.09884   2.10257   2.10442   2.10932   2.11018
 Alpha virt. eigenvalues --    2.11343   2.12218   2.13390   2.13475   2.13923
 Alpha virt. eigenvalues --    2.14711   2.15582   2.15663   2.16081   2.16300
 Alpha virt. eigenvalues --    2.16442   2.16714   2.17153   2.18175   2.18731
 Alpha virt. eigenvalues --    2.19143   2.19657   2.19836   2.20565   2.21213
 Alpha virt. eigenvalues --    2.21543   2.21640   2.21909   2.22180   2.22610
 Alpha virt. eigenvalues --    2.22764   2.23146   2.23935   2.24208   2.25569
 Alpha virt. eigenvalues --    2.25612   2.26654   2.27094   2.27248   2.27390
 Alpha virt. eigenvalues --    2.27542   2.27775   2.27995   2.28064   2.28232
 Alpha virt. eigenvalues --    2.28611   2.28859   2.29080   2.29362   2.29585
 Alpha virt. eigenvalues --    2.29728   2.29907   2.29977   2.30041   2.30301
 Alpha virt. eigenvalues --    2.30751   2.31591   2.32035   2.32640   2.32909
 Alpha virt. eigenvalues --    2.33086   2.33310   2.34141   2.34387   2.35116
 Alpha virt. eigenvalues --    2.35869   2.36209   2.36835   2.36935   2.37906
 Alpha virt. eigenvalues --    2.38119   2.38472   2.38632   2.38728   2.38834
 Alpha virt. eigenvalues --    2.39264   2.39803   2.40342   2.40586   2.40822
 Alpha virt. eigenvalues --    2.41110   2.41377   2.42037   2.42187   2.42541
 Alpha virt. eigenvalues --    2.42965   2.43196   2.44150   2.44251   2.44502
 Alpha virt. eigenvalues --    2.45064   2.45554   2.45678   2.46377   2.46592
 Alpha virt. eigenvalues --    2.46805   2.47035   2.47425   2.47756   2.48000
 Alpha virt. eigenvalues --    2.48044   2.48536   2.49352   2.49972   2.50177
 Alpha virt. eigenvalues --    2.50738   2.51627   2.52373   2.52984   2.53191
 Alpha virt. eigenvalues --    2.54325   2.54741   2.55999   2.56213   2.56442
 Alpha virt. eigenvalues --    2.56648   2.57153   2.58038   2.58423   2.58620
 Alpha virt. eigenvalues --    2.59399   2.59575   2.59726   2.59796   2.60070
 Alpha virt. eigenvalues --    2.60169   2.60290   2.60564   2.60864   2.61100
 Alpha virt. eigenvalues --    2.61466   2.61624   2.61970   2.62161   2.63002
 Alpha virt. eigenvalues --    2.63034   2.63165   2.63647   2.63830   2.64354
 Alpha virt. eigenvalues --    2.64468   2.65049   2.65457   2.65669   2.66163
 Alpha virt. eigenvalues --    2.67175   2.67331   2.67626   2.68147   2.68484
 Alpha virt. eigenvalues --    2.68638   2.69417   2.69582   2.70750   2.71617
 Alpha virt. eigenvalues --    2.72245   2.72351   2.72601   2.73566   2.73952
 Alpha virt. eigenvalues --    2.75425   2.76813   2.77039   2.77472   2.77584
 Alpha virt. eigenvalues --    2.77794   2.78513   2.78954   2.79915   2.80014
 Alpha virt. eigenvalues --    2.81240   2.81800   2.82686   2.83060   2.83408
 Alpha virt. eigenvalues --    2.83864   2.84355   2.84774   2.86156   2.86464
 Alpha virt. eigenvalues --    2.87542   2.88659   2.89235   2.90228   2.91181
 Alpha virt. eigenvalues --    2.91378   2.92578   2.92779   2.94827   2.95200
 Alpha virt. eigenvalues --    2.96038   2.98432   2.98743   2.99452   3.00062
 Alpha virt. eigenvalues --    3.01756   3.02954   3.03146   3.04428   3.05064
 Alpha virt. eigenvalues --    3.05514   3.05939   3.05959   3.06391   3.06839
 Alpha virt. eigenvalues --    3.09415   3.10708   3.11041   3.11778   3.12058
 Alpha virt. eigenvalues --    3.12333   3.12461   3.14031   3.14223   3.14896
 Alpha virt. eigenvalues --    3.16472   3.18313   3.18536   3.18938   3.20812
 Alpha virt. eigenvalues --    3.21274   3.21543   3.21881   3.22448   3.22515
 Alpha virt. eigenvalues --    3.22721   3.23596   3.25050   3.26576   3.27791
 Alpha virt. eigenvalues --    3.28363   3.28869   3.29257   3.30058   3.30117
 Alpha virt. eigenvalues --    3.30741   3.33297   3.34431   3.35933   3.36453
 Alpha virt. eigenvalues --    3.37665   3.40096   3.40441   3.40508   3.41328
 Alpha virt. eigenvalues --    3.41540   3.42421   3.43391   3.44033   3.45907
 Alpha virt. eigenvalues --    3.46866   3.47360   3.47372   3.48535   3.51040
 Alpha virt. eigenvalues --    3.51221   3.55061   3.55250   3.69440   3.70018
 Alpha virt. eigenvalues --    3.73167   3.73759   3.73836   3.83993   3.85630
 Alpha virt. eigenvalues --    3.86720   3.88222   3.99419   4.00651  49.08053
          Condensed to atoms (all electrons):
 Mulliken charges:
               1
     1  C   -0.205009
     2  C    0.133338
     3  C   -0.061730
     4  C    0.243164
     5  C   -0.221299
     6  C    0.336395
     7  C   -0.225081
     8  C    0.145492
     9  C   -0.187920
    10  C   -0.232886
    11  C   -0.430213
    12  C    0.254307
    13  H    0.109874
    14  H    0.115928
    15  H    0.117911
    16  N    0.547563
    17  N    0.542801
    18  N    0.322555
    19  N    0.325483
    20  C   -0.186087
    21  H    0.115711
    22  C   -0.419970
    23  H    0.109784
    24  C    0.339791
    25  C   -0.065805
    26  H    0.117946
    27  C    0.423288
    28  C    0.149485
    29  C    0.146365
    30  C    0.090201
    31  C   -0.697386
    32  C    0.091375
    33  C    0.107208
    34  C    0.325710
    35  C    0.380323
    36  C    0.458021
    37  C   -0.671277
    38  C    0.186071
    39  C    0.037034
    40  C    0.323857
    41  C    0.277358
    42  C    0.492185
    43  C   -0.691621
    44  C    0.092811
    45  C    0.097006
    46  C    0.325153
    47  C    0.382122
    48  C    0.456369
    49  Ni  -0.484937
    50  C   -0.016056
    51  C   -0.222196
    52  H    0.103061
    53  C   -0.021413
    54  C   -0.222310
    55  H    0.103023
    56  F   -0.272597
    57  F   -0.354684
    58  F   -0.351051
    59  F   -0.353036
    60  F   -0.271496
    61  F   -0.278240
    62  F   -0.355418
    63  F   -0.350768
    64  F   -0.352991
    65  F   -0.275034
    66  F   -0.270631
    67  F   -0.352902
    68  F   -0.350997
    69  F   -0.354726
    70  F   -0.273066
    71  H    0.106402
    72  H    0.106392
    73  O   -0.687740
    74  C    0.150127
    75  C    0.150221
    76  C   -0.073668
    77  H    0.115710
    78  C   -0.074168
    79  H    0.115712
    80  N   -0.243089
    81  H    0.365832
    82  N   -0.242783
    83  H    0.365821
 Sum of Mulliken charges =  -1.00000
 Mulliken charges with hydrogens summed into heavy atoms:
               1
     1  C   -0.205009
     2  C    0.133338
     3  C    0.056181
     4  C    0.243164
     5  C   -0.221299
     6  C    0.336395
     7  C   -0.225081
     8  C    0.145492
     9  C   -0.071992
    10  C   -0.232886
    11  C   -0.320339
    12  C    0.254307
    16  N    0.547563
    17  N    0.542801
    18  N    0.322555
    19  N    0.325483
    20  C   -0.070377
    22  C   -0.310186
    24  C    0.339791
    25  C    0.052142
    27  C    0.423288
    28  C    0.149485
    29  C    0.146365
    30  C    0.090201
    31  C   -0.697386
    32  C    0.091375
    33  C    0.107208
    34  C    0.325710
    35  C    0.380323
    36  C    0.458021
    37  C   -0.671277
    38  C    0.186071
    39  C    0.037034
    40  C    0.323857
    41  C    0.277358
    42  C    0.492185
    43  C   -0.691621
    44  C    0.092811
    45  C    0.097006
    46  C    0.325153
    47  C    0.382122
    48  C    0.456369
    49  Ni  -0.484937
    50  C   -0.016056
    51  C   -0.115805
    53  C   -0.021413
    54  C   -0.115908
    56  F   -0.272597
    57  F   -0.354684
    58  F   -0.351051
    59  F   -0.353036
    60  F   -0.271496
    61  F   -0.278240
    62  F   -0.355418
    63  F   -0.350768
    64  F   -0.352991
    65  F   -0.275034
    66  F   -0.270631
    67  F   -0.352902
    68  F   -0.350997
    69  F   -0.354726
    70  F   -0.273066
    73  O   -0.687740
    74  C    0.253149
    75  C    0.253282
    76  C    0.042042
    78  C    0.041544
    80  N    0.122743
    82  N    0.123038
 Electronic spatial extent (au):  <R**2>=          62047.8494
 Charge=             -1.0000 electrons
 Dipole moment (field-independent basis, Debye):
    X=              0.0302    Y=              6.3399    Z=              1.3534  Tot=              6.4828
 Quadrupole moment (field-independent basis, Debye-Ang):
   XX=           -478.4870   YY=           -480.1289   ZZ=           -430.5035
   XY=             -0.0750   XZ=              1.0894   YZ=              0.4698
 Traceless Quadrupole moment (field-independent basis, Debye-Ang):
   XX=            -15.4472   YY=            -17.0891   ZZ=             32.5363
   XY=             -0.0750   XZ=              1.0894   YZ=              0.4698
 Octapole moment (field-independent basis, Debye-Ang**2):
  XXX=              6.2503  YYY=            148.1905  ZZZ=             11.4833  XYY=             -0.7833
  XXY=            220.6970  XXZ=            -21.2975  XZZ=             -2.8385  YZZ=             29.4789
  YYZ=             67.4005  XYZ=              9.8188
 Hexadecapole moment (field-independent basis, Debye-Ang**3):
 XXXX=         -44636.8094 YYYY=         -38956.9923 ZZZZ=          -6334.1834 XXXY=             23.0228
 XXXZ=            -31.3739 YYYX=            -18.8315 YYYZ=            222.5982 ZZZX=             -6.1528
 ZZZY=            -76.7011 XXYY=         -12420.4190 XXZZ=          -8357.2396 YYZZ=          -7137.7995
 XXYZ=           -244.7401 YYXZ=             53.6082 ZZXY=            -15.3816
 N-N= 1.112339034127D+04 E-N=-3.128844641900D+04  KE= 3.745830980713D+03
 Unable to Open any file for archive entry.
 1\1\GINC-CCNN755\FOpt\RB3LYP\GenECP\C46H14F15N6Ni1O1(1-)\CPI\20-Nov-20
 21\0\\# opt b3lyp/genecp geom=connectivity scf=maxcyc=1000\\title\\-1,
 1\C,-3.6883083478,-2.6784659449,3.652662147\C,-0.3106972256,1.85407746
 45,1.795530397\C,1.8474228001,1.3074958581,2.1538892142\C,0.9667800161
 ,0.3026307359,2.6959131475\C,0.4979115753,-1.9793514148,3.4839730235\C
 ,-0.1829541342,-4.1403954217,3.5950724993\C,-1.2971910653,-3.245768438
 4,3.3304495915\C,-2.6694668993,2.4161130065,2.1102146328\C,-3.74612629
 33,3.3765723831,2.1822747383\C,-4.639629755,-0.7609121458,4.1700760535
 \C,-5.528390172,-1.7813480316,4.5895137881\C,-4.234679584,1.5343999636
 ,3.3844435642\H,-6.5011281846,-1.6235582277,5.0316240786\H,-3.75762395
 64,4.3421030471,1.6963199293\H,2.9273472561,1.2834506794,2.1980920865\
 N,-0.8648718878,-1.9424995239,3.2848742962\N,-3.4980301291,-1.31786459
 83,3.6365031649\N,-0.3502161519,0.6596564093,2.4683629147\N,-2.9939866
 142,1.289977894,2.8239872911\C,1.0594578768,2.2435900608,1.5551411351\
 H,1.3731337786,3.1380954369,1.035225965\C,0.9184021311,-3.3106856936,3
 .7245141596\H,1.9368604141,-3.6250929294,3.8990831637\C,-4.9766431659,
 -3.003044259,4.2413506084\C,-4.6907016425,2.8502580791,3.0103945037\H,
 -5.6263344302,3.2985475044,3.314317886\C,-2.686063683,-3.6227131789,3.
 2201858971\C,-4.9724126325,0.6060127354,4.1022204196\C,1.3711886684,-0
 .8971400847,3.2602203361\C,-1.4210297064,2.6626208575,1.5295345908\C,2
 .8274728873,-1.1119011531,3.5209913517\C,3.7140193787,-1.525685969,2.5
 200119458\C,3.3722987092,-0.9194918238,4.7959076716\C,5.0706503146,-1.
 7332323944,2.7646238831\C,4.724508841,-1.1216087788,5.0676692811\C,5.5
 769444793,-1.5306428362,4.0456804165\C,-1.2235264774,3.9111798154,0.73
 52297976\C,-1.2640709743,3.8971648988,-0.6649772688\C,-0.9809539006,5.
 1537823003,1.3346422066\C,-1.077468562,5.0469134215,-1.4311633358\C,-0
 .7935663422,6.3190904476,0.5929850123\C,-0.8422082148,6.2639629442,-0.
 7974339561\C,-6.2604403473,1.0409380612,4.7243210292\C,-7.4567518161,1
 .1057777563,4.0006441997\C,-6.3300458785,1.3937417373,6.0770343404\C,-
 8.6593999417,1.5042258708,4.5821851086\C,-7.5197681267,1.7938028284,6.
 6834583434\C,-8.6897689384,1.8488524621,5.9308234421\Ni,-1.929836495,-
 0.3312726397,3.0383702759\C,-5.6485281817,-4.2653615298,4.5208071698\C
 ,-7.0669756251,-5.8789617949,5.2680329784\H,-7.2174002789,-3.770163819
 7,5.9997067948\C,-0.0908642667,-5.5842235562,3.7676815238\C,0.60691852
 9,-7.7006202699,4.2237416002\H,1.8503100266,-5.923764972,4.7728987724\
 F,2.5877924787,-0.5202280386,5.8098509598\F,5.2137359237,-0.9216780998
 ,6.3039399695\F,6.8821644046,-1.7258890081,4.2936280598\F,5.8938598478
 ,-2.1272446741,1.7770650589\F,3.2694563003,-1.7375025785,1.2704392041\
 F,-1.4924920094,2.7474605496,-1.3199916414\F,-1.1258374863,4.993416280
 3,-2.7738742992\F,-0.6621963594,7.3793254474,-1.5233700518\F,-0.562057
 2572,7.4940865942,1.2056652352\F,-0.9151771228,5.2553307455,2.67299900
 63\F,-7.4757579869,0.7791934126,2.6979535783\F,-9.7889565934,1.5586351
 301,3.8546053892\F,-9.8417895779,2.2355770646,6.5022197139\F,-7.547743
 1143,2.1303967355,7.9848365821\F,-5.2250931371,1.3597714834,6.83916937
 08\H,1.1905332976,-8.5456381418,4.5641500488\H,-7.8562478572,-6.397653
 6021,5.7958101629\O,-3.0150122792,-4.7939475347,2.8420626468\C,0.95299
 07953,-6.3298356049,4.3266899012\C,-6.7355643355,-4.5043863648,5.36888
 89486\C,-6.178123389,-6.4474887834,4.3643625705\H,-6.0814176476,-7.464
 8627127,4.0133063558\C,-0.6363495095,-7.7621023352,3.6069405008\H,-1.2
 564981677,-8.6088663814,3.3499376068\N,-5.3400560168,-5.4643912055,3.9
 231483538\H,-4.5231928717,-5.5206413452,3.3082485889\N,-1.0354067838,-
 6.4850675615,3.336000832\H,-1.9185695592,-6.1373474401,2.9516603098\\V
 ersion=ES64L-G16RevC.01\State=1-A\HF=-3832.170079\RMSD=7.340e-09\RMSF=
 2.198e-06\Dipole=0.5231308,2.4583075,-0.4338771\Quadrupole=-9.6831518,
 -8.3838757,18.0670275,2.5386941,7.5556999,11.4564202\PG=C01 [X(C46H14F
 15N6Ni1O1)]\\@
 The archive entry for this job was punched.


 Boundary, n.  In political geography, an imaginary
 line between two nations, separating the imaginary
 rights of one from the imaginary rights of another.
                               -- Ambrose Bierce
 Job cpu time:      10 days 23 hours 42 minutes  1.1 seconds.
 Elapsed time:       0 days 16 hours 30 minutes  2.2 seconds.
 File lengths (MBytes):  RWF=   1089 Int=      0 D2E=      0 Chk=    158 Scr=      1
 Normal termination of Gaussian 16 at Sat Nov 20 16:50:47 2021.
