 Entering Gaussian System, Link 0=/local/apl/lx/g16c01/g16/._.g16
 Initial command:
 /local/apl/lx/g16c01/g16/l1.exe "/work/users/cpi/4775912.cccms1/Gau-207547.inp" -scrdir="/work/users/cpi/4775912.cccms1/"
 Default CPUs for threads: 0,1,2,3,4,5,6,7,8,9,10,11,12,13,14,15,16,17
 Default is to use a total of  18 processors:
                               18 via shared-memory
                                1 via Linda
 Entering Link 1 = /local/apl/lx/g16c01/g16/l1.exe PID=    207548.
  
 Copyright (c) 1988-2019, Gaussian, Inc.  All Rights Reserved.
  
 This is part of the Gaussian(R) 16 program.  It is based on
 the Gaussian(R) 09 system (copyright 2009, Gaussian, Inc.),
 the Gaussian(R) 03 system (copyright 2003, Gaussian, Inc.),
 the Gaussian(R) 98 system (copyright 1998, Gaussian, Inc.),
 the Gaussian(R) 94 system (copyright 1995, Gaussian, Inc.),
 the Gaussian 92(TM) system (copyright 1992, Gaussian, Inc.),
 the Gaussian 90(TM) system (copyright 1990, Gaussian, Inc.),
 the Gaussian 88(TM) system (copyright 1988, Gaussian, Inc.),
 the Gaussian 86(TM) system (copyright 1986, Carnegie Mellon
 University), and the Gaussian 82(TM) system (copyright 1983,
 Carnegie Mellon University). Gaussian is a federally registered
 trademark of Gaussian, Inc.
  
 This software contains proprietary and confidential information,
 including trade secrets, belonging to Gaussian, Inc.
  
 This software is provided under written license and may be
 used, copied, transmitted, or stored only in accord with that
 written license.
  
 The following legend is applicable only to US Government
 contracts under FAR:
  
                    RESTRICTED RIGHTS LEGEND
  
 Use, reproduction and disclosure by the US Government is
 subject to restrictions as set forth in subparagraphs (a)
 and (c) of the Commercial Computer Software - Restricted
 Rights clause in FAR 52.227-19.
  
 Gaussian, Inc.
 340 Quinnipiac St., Bldg. 40, Wallingford CT 06492
  
  
 ---------------------------------------------------------------
 Warning -- This program may not be used in any manner that
 competes with the business of Gaussian, Inc. or will provide
 assistance to any competitor of Gaussian, Inc.  The licensee
 of this program is prohibited from giving any competitor of
 Gaussian, Inc. access to this program.  By using this program,
 the user acknowledges that Gaussian, Inc. is engaged in the
 business of creating and licensing software in the field of
 computational chemistry and represents and warrants to the
 licensee that it is not a competitor of Gaussian, Inc. and that
 it will not use this program in any manner prohibited above.
 ---------------------------------------------------------------
  

 Cite this work as:
 Gaussian 16, Revision C.01,
 M. J. Frisch, G. W. Trucks, H. B. Schlegel, G. E. Scuseria, 
 M. A. Robb, J. R. Cheeseman, G. Scalmani, V. Barone, 
 G. A. Petersson, H. Nakatsuji, X. Li, M. Caricato, A. V. Marenich, 
 J. Bloino, B. G. Janesko, R. Gomperts, B. Mennucci, H. P. Hratchian, 
 J. V. Ortiz, A. F. Izmaylov, J. L. Sonnenberg, D. Williams-Young, 
 F. Ding, F. Lipparini, F. Egidi, J. Goings, B. Peng, A. Petrone, 
 T. Henderson, D. Ranasinghe, V. G. Zakrzewski, J. Gao, N. Rega, 
 G. Zheng, W. Liang, M. Hada, M. Ehara, K. Toyota, R. Fukuda, 
 J. Hasegawa, M. Ishida, T. Nakajima, Y. Honda, O. Kitao, H. Nakai, 
 T. Vreven, K. Throssell, J. A. Montgomery, Jr., J. E. Peralta, 
 F. Ogliaro, M. J. Bearpark, J. J. Heyd, E. N. Brothers, K. N. Kudin, 
 V. N. Staroverov, T. A. Keith, R. Kobayashi, J. Normand, 
 K. Raghavachari, A. P. Rendell, J. C. Burant, S. S. Iyengar, 
 J. Tomasi, M. Cossi, J. M. Millam, M. Klene, C. Adamo, R. Cammi, 
 J. W. Ochterski, R. L. Martin, K. Morokuma, O. Farkas, 
 J. B. Foresman, and D. J. Fox, Gaussian, Inc., Wallingford CT, 2019.
 
 ******************************************
 Gaussian 16:  ES64L-G16RevC.01  3-Jul-2019
                20-Oct-2021 
 ******************************************
 %mem=100GB
 %nprocshare=16
 Will use up to   16 processors via shared memory.
 %chk=Pd_3C6F5_Por_dithiophene_O-.chk
 ----------------------------------------------------
 # opt b3lyp/genecp geom=connectivity scf=maxcyc=1000
 ----------------------------------------------------
 1/18=20,19=15,26=3,38=1,57=2/1,3;
 2/9=110,12=2,17=6,18=5,40=1/2;
 3/5=7,11=2,16=1,17=8,25=1,30=1,71=1,74=-5/1,2,3;
 4//1;
 5/5=2,7=1000,38=5/2;
 6/7=2,8=2,9=2,10=2,28=1/1;
 7//1,2,3,16;
 1/18=20,19=15,26=3/3(2);
 2/9=110/2;
 99//99;
 2/9=110/2;
 3/5=7,6=1,11=2,16=1,17=8,25=1,30=1,71=1,74=-5,82=7/1,2,3;
 4/5=5,16=3,69=1/1;
 5/5=2,7=1000,38=5/2;
 7//1,2,3,16;
 1/18=20,19=15,26=3/3(-5);
 2/9=110/2;
 6/7=2,8=2,9=2,10=2,19=2,28=1/1;
 99/9=1/99;
 -----
 title
 -----
 Symbolic Z-matrix:
 Charge = -1 Multiplicity = 1
 C                    -1.2895   -2.40043  -0.86787 
 C                     1.25007   2.84211  -0.30677 
 C                     3.53851   2.61392   0.19369 
 C                     2.82085   1.27215   0.2021 
 C                     2.7056   -1.08095   0.11209 
 C                     2.40913  -3.13073  -0.68961 
 C                     1.22381  -2.43015  -0.86578 
 C                    -1.18093   2.92229  -0.19063 
 C                    -2.52764   3.65199   0.02442 
 C                    -2.74097  -1.01379   0.1165 
 C                    -3.35394  -2.2548    0.02299 
 C                    -2.78711   1.36342   0.27609 
 H                    -4.31112  -2.5284    0.41065 
 H                    -2.68687   4.70686  -0.05155 
 H                     4.56491   2.78641   0.43894 
 N                     1.35121  -1.21303  -0.36875 
 N                    -1.40325  -1.17023  -0.35933 
 N                     1.40893   1.53743  -0.13309 
 N                    -1.38316   1.59441  -0.06019 
 C                     2.6237    3.54116  -0.17014 
 H                     2.81112   4.58258  -0.31117 
 C                     3.28684  -2.33593   0.0384 
 H                     4.2312   -2.63098   0.43892 
 C                    -2.4904   -3.07084  -0.70286 
 C                    -3.46847   2.72696   0.33313 
 H                    -4.49366   2.91295   0.57018 
 C                    -0.03713  -3.00855  -1.45934 
 C                    -3.35958   0.15619   0.50998 
 C                     3.35767   0.06632   0.49054 
 C                     0.04538   3.52961  -0.49742 
 C                     4.70201  -0.06115   1.19055 
 C                     5.84382   0.26605   0.4813 
 C                     4.78324  -0.5113    2.52067 
 C                     7.0961    0.07338   1.06224 
 C                     6.0341   -0.58387   3.145 
 C                     7.19381  -0.32452   2.4029 
 C                     0.07046   4.97287  -0.99754 
 C                     0.40096   5.24827  -2.33577 
 C                    -0.24      6.00505  -0.12056 
 C                     0.36405   6.56965  -2.79885 
 C                    -0.15553   7.33074  -0.55358 
 C                     0.11628   7.61361  -1.89902 
 C                    -4.71814   0.0513    1.17618 
 C                    -5.84236   0.40058   0.44674 
 C                    -4.82552  -0.4005    2.49913 
 C                    -7.10574   0.23355   1.01046 
 C                    -6.08349  -0.44534   3.10693 
 C                    -7.22803  -0.1602    2.3505 
 C                    -2.80681  -4.47419  -1.19146 
 C                    -2.94933  -6.45614  -2.54839 
 H                    -1.50994  -4.65931  -2.91084 
 C                     2.69996  -4.54004  -1.17543 
 C                     2.81268  -6.52136  -2.53447 
 H                     1.41422  -4.694    -2.9037 
 F                     3.66345  -0.83204   3.20852 
 F                     6.12344  -0.89537   4.4571 
 F                     8.40589  -0.45656   2.97792 
 F                     8.20912   0.26047   0.32591 
 F                     5.73417   0.72307  -0.78333 
 F                     0.71045   4.243    -3.18602 
 F                     0.5567    6.83684  -4.10944 
 F                     0.13975   8.89246  -2.32653 
 F                    -0.32835   8.336     0.32838 
 F                    -0.57627   5.72146   1.15435 
 F                    -5.70597   0.85252  -0.81769 
 F                    -8.20539   0.44161   0.25954 
 F                    -8.44906  -0.26413   2.9114 
 F                    -6.19412  -0.75381   4.41745 
 F                    -3.72016  -0.74833   3.19727 
 H                     2.56615  -7.15085  -3.36201 
 H                    -2.70989  -7.09271  -3.37276 
 O                    -0.04543  -3.95152  -2.29542 
 C                     2.16654  -5.13442  -2.27735 
 C                    -2.27682  -5.08213  -2.28906 
 C                    -3.89445  -6.75207  -1.61314 
 H                    -4.52845  -7.60793  -1.63438 
 S                    -3.94485  -5.52474  -0.35264 
 S                     3.80892  -5.61528  -0.329 
 C                     3.74422  -6.83895  -1.59277 
 H                     4.36019  -7.70839  -1.61118 
 Pd                    0.01284   0.19326  -0.24556 
 

 GradGradGradGradGradGradGradGradGradGradGradGradGradGradGradGradGradGrad
 Berny optimization.
 Initialization pass.
                           ----------------------------
                           !    Initial Parameters    !
                           ! (Angstroms and Degrees)  !
 --------------------------                            --------------------------
 ! Name  Definition              Value          Derivative Info.                !
 --------------------------------------------------------------------------------
 ! R1    R(1,17)                 1.336          estimate D2E/DX2                !
 ! R2    R(1,24)                 1.3852         estimate D2E/DX2                !
 ! R3    R(1,27)                 1.5126         estimate D2E/DX2                !
 ! R4    R(2,18)                 1.3257         estimate D2E/DX2                !
 ! R5    R(2,20)                 1.5473         estimate D2E/DX2                !
 ! R6    R(2,30)                 1.4001         estimate D2E/DX2                !
 ! R7    R(3,4)                  1.5217         estimate D2E/DX2                !
 ! R8    R(3,15)                 1.0693         estimate D2E/DX2                !
 ! R9    R(3,20)                 1.3524         estimate D2E/DX2                !
 ! R10   R(4,18)                 1.4752         estimate D2E/DX2                !
 ! R11   R(4,29)                 1.3511         estimate D2E/DX2                !
 ! R12   R(5,16)                 1.4433         estimate D2E/DX2                !
 ! R13   R(5,22)                 1.385          estimate D2E/DX2                !
 ! R14   R(5,29)                 1.3728         estimate D2E/DX2                !
 ! R15   R(6,7)                  1.3881         estimate D2E/DX2                !
 ! R16   R(6,22)                 1.39           estimate D2E/DX2                !
 ! R17   R(6,52)                 1.5188         estimate D2E/DX2                !
 ! R18   R(7,16)                 1.3209         estimate D2E/DX2                !
 ! R19   R(7,27)                 1.5089         estimate D2E/DX2                !
 ! R20   R(8,9)                  1.5467         estimate D2E/DX2                !
 ! R21   R(8,19)                 1.3495         estimate D2E/DX2                !
 ! R22   R(8,30)                 1.4024         estimate D2E/DX2                !
 ! R23   R(9,14)                 1.0695         estimate D2E/DX2                !
 ! R24   R(9,25)                 1.355          estimate D2E/DX2                !
 ! R25   R(10,11)                1.3873         estimate D2E/DX2                !
 ! R26   R(10,17)                1.4284         estimate D2E/DX2                !
 ! R27   R(10,28)                1.3807         estimate D2E/DX2                !
 ! R28   R(11,13)                1.0683         estimate D2E/DX2                !
 ! R29   R(11,24)                1.3923         estimate D2E/DX2                !
 ! R30   R(12,19)                1.462          estimate D2E/DX2                !
 ! R31   R(12,25)                1.5254         estimate D2E/DX2                !
 ! R32   R(12,28)                1.3564         estimate D2E/DX2                !
 ! R33   R(16,81)                1.9453         estimate D2E/DX2                !
 ! R34   R(17,81)                1.9691         estimate D2E/DX2                !
 ! R35   R(18,81)                1.9413         estimate D2E/DX2                !
 ! R36   R(19,81)                1.9866         estimate D2E/DX2                !
 ! R37   R(20,21)                1.0675         estimate D2E/DX2                !
 ! R38   R(22,23)                1.0674         estimate D2E/DX2                !
 ! R39   R(24,49)                1.5193         estimate D2E/DX2                !
 ! R40   R(25,26)                1.0685         estimate D2E/DX2                !
 ! R41   R(27,72)                1.2603         estimate D2E/DX2                !
 ! R42   R(28,43)                1.5167         estimate D2E/DX2                !
 ! R43   R(29,31)                1.521          estimate D2E/DX2                !
 ! R44   R(30,37)                1.5277         estimate D2E/DX2                !
 ! R45   R(31,32)                1.3834         estimate D2E/DX2                !
 ! R46   R(31,33)                1.4066         estimate D2E/DX2                !
 ! R47   R(32,34)                1.3939         estimate D2E/DX2                !
 ! R48   R(32,59)                1.3491         estimate D2E/DX2                !
 ! R49   R(33,35)                1.3999         estimate D2E/DX2                !
 ! R50   R(33,55)                1.3527         estimate D2E/DX2                !
 ! R51   R(34,36)                1.4019         estimate D2E/DX2                !
 ! R52   R(34,58)                1.3476         estimate D2E/DX2                !
 ! R53   R(35,36)                1.401          estimate D2E/DX2                !
 ! R54   R(35,56)                1.3515         estimate D2E/DX2                !
 ! R55   R(36,57)                1.348          estimate D2E/DX2                !
 ! R56   R(37,38)                1.4057         estimate D2E/DX2                !
 ! R57   R(37,39)                1.3896         estimate D2E/DX2                !
 ! R58   R(38,40)                1.4007         estimate D2E/DX2                !
 ! R59   R(38,60)                1.3525         estimate D2E/DX2                !
 ! R60   R(39,41)                1.3972         estimate D2E/DX2                !
 ! R61   R(39,64)                1.3487         estimate D2E/DX2                !
 ! R62   R(40,42)                1.4003         estimate D2E/DX2                !
 ! R63   R(40,61)                1.3514         estimate D2E/DX2                !
 ! R64   R(41,42)                1.4015         estimate D2E/DX2                !
 ! R65   R(41,63)                1.3484         estimate D2E/DX2                !
 ! R66   R(42,62)                1.3486         estimate D2E/DX2                !
 ! R67   R(43,44)                1.3849         estimate D2E/DX2                !
 ! R68   R(43,45)                1.4021         estimate D2E/DX2                !
 ! R69   R(44,46)                1.3935         estimate D2E/DX2                !
 ! R70   R(44,65)                1.3497         estimate D2E/DX2                !
 ! R71   R(45,47)                1.3978         estimate D2E/DX2                !
 ! R72   R(45,69)                1.3529         estimate D2E/DX2                !
 ! R73   R(46,48)                1.402          estimate D2E/DX2                !
 ! R74   R(46,66)                1.3477         estimate D2E/DX2                !
 ! R75   R(47,48)                1.4012         estimate D2E/DX2                !
 ! R76   R(47,68)                1.3509         estimate D2E/DX2                !
 ! R77   R(48,67)                1.3477         estimate D2E/DX2                !
 ! R78   R(49,74)                1.3621         estimate D2E/DX2                !
 ! R79   R(49,77)                1.7614         estimate D2E/DX2                !
 ! R80   R(50,71)                1.0687         estimate D2E/DX2                !
 ! R81   R(50,74)                1.5516         estimate D2E/DX2                !
 ! R82   R(50,75)                1.3622         estimate D2E/DX2                !
 ! R83   R(51,74)                1.074          estimate D2E/DX2                !
 ! R84   R(52,73)                1.3609         estimate D2E/DX2                !
 ! R85   R(52,78)                1.7614         estimate D2E/DX2                !
 ! R86   R(53,70)                1.0686         estimate D2E/DX2                !
 ! R87   R(53,73)                1.5515         estimate D2E/DX2                !
 ! R88   R(53,79)                1.3621         estimate D2E/DX2                !
 ! R89   R(54,73)                1.0734         estimate D2E/DX2                !
 ! R90   R(75,76)                1.0653         estimate D2E/DX2                !
 ! R91   R(75,77)                1.76           estimate D2E/DX2                !
 ! R92   R(78,79)                1.7603         estimate D2E/DX2                !
 ! R93   R(79,80)                1.0657         estimate D2E/DX2                !
 ! A1    A(17,1,24)            109.0553         estimate D2E/DX2                !
 ! A2    A(17,1,27)            126.1226         estimate D2E/DX2                !
 ! A3    A(24,1,27)            124.735          estimate D2E/DX2                !
 ! A4    A(18,2,20)            109.0662         estimate D2E/DX2                !
 ! A5    A(18,2,30)            127.1695         estimate D2E/DX2                !
 ! A6    A(20,2,30)            123.6439         estimate D2E/DX2                !
 ! A7    A(4,3,15)             126.4189         estimate D2E/DX2                !
 ! A8    A(4,3,20)             106.6801         estimate D2E/DX2                !
 ! A9    A(15,3,20)            126.8981         estimate D2E/DX2                !
 ! A10   A(3,4,18)             106.9519         estimate D2E/DX2                !
 ! A11   A(3,4,29)             126.9254         estimate D2E/DX2                !
 ! A12   A(18,4,29)            126.1065         estimate D2E/DX2                !
 ! A13   A(16,5,22)            107.0482         estimate D2E/DX2                !
 ! A14   A(16,5,29)            127.883          estimate D2E/DX2                !
 ! A15   A(22,5,29)            124.9302         estimate D2E/DX2                !
 ! A16   A(7,6,22)             108.4867         estimate D2E/DX2                !
 ! A17   A(7,6,52)             126.2449         estimate D2E/DX2                !
 ! A18   A(22,6,52)            125.2535         estimate D2E/DX2                !
 ! A19   A(6,7,16)             109.5695         estimate D2E/DX2                !
 ! A20   A(6,7,27)             124.7529         estimate D2E/DX2                !
 ! A21   A(16,7,27)            125.5801         estimate D2E/DX2                !
 ! A22   A(9,8,19)             108.6806         estimate D2E/DX2                !
 ! A23   A(9,8,30)             125.9772         estimate D2E/DX2                !
 ! A24   A(19,8,30)            125.3305         estimate D2E/DX2                !
 ! A25   A(8,9,14)             125.8075         estimate D2E/DX2                !
 ! A26   A(8,9,25)             108.3094         estimate D2E/DX2                !
 ! A27   A(14,9,25)            125.882          estimate D2E/DX2                !
 ! A28   A(11,10,17)           107.0597         estimate D2E/DX2                !
 ! A29   A(11,10,28)           125.3994         estimate D2E/DX2                !
 ! A30   A(17,10,28)           127.3961         estimate D2E/DX2                !
 ! A31   A(10,11,13)           126.9069         estimate D2E/DX2                !
 ! A32   A(10,11,24)           106.583          estimate D2E/DX2                !
 ! A33   A(13,11,24)           126.496          estimate D2E/DX2                !
 ! A34   A(19,12,25)           107.2365         estimate D2E/DX2                !
 ! A35   A(19,12,28)           125.8427         estimate D2E/DX2                !
 ! A36   A(25,12,28)           126.9148         estimate D2E/DX2                !
 ! A37   A(5,16,7)             107.4696         estimate D2E/DX2                !
 ! A38   A(5,16,81)            123.9445         estimate D2E/DX2                !
 ! A39   A(7,16,81)            128.5815         estimate D2E/DX2                !
 ! A40   A(1,17,10)            107.9014         estimate D2E/DX2                !
 ! A41   A(1,17,81)            126.7522         estimate D2E/DX2                !
 ! A42   A(10,17,81)           125.339          estimate D2E/DX2                !
 ! A43   A(2,18,4)             108.7492         estimate D2E/DX2                !
 ! A44   A(2,18,81)            125.9907         estimate D2E/DX2                !
 ! A45   A(4,18,81)            125.2368         estimate D2E/DX2                !
 ! A46   A(8,19,12)            108.7595         estimate D2E/DX2                !
 ! A47   A(8,19,81)            125.4281         estimate D2E/DX2                !
 ! A48   A(12,19,81)           125.7918         estimate D2E/DX2                !
 ! A49   A(2,20,3)             108.3308         estimate D2E/DX2                !
 ! A50   A(2,20,21)            125.7984         estimate D2E/DX2                !
 ! A51   A(3,20,21)            125.8486         estimate D2E/DX2                !
 ! A52   A(5,22,6)             106.3192         estimate D2E/DX2                !
 ! A53   A(5,22,23)            126.9995         estimate D2E/DX2                !
 ! A54   A(6,22,23)            126.6659         estimate D2E/DX2                !
 ! A55   A(1,24,11)            108.4297         estimate D2E/DX2                !
 ! A56   A(1,24,49)            126.1059         estimate D2E/DX2                !
 ! A57   A(11,24,49)           125.4418         estimate D2E/DX2                !
 ! A58   A(9,25,12)            106.9521         estimate D2E/DX2                !
 ! A59   A(9,25,26)            126.7164         estimate D2E/DX2                !
 ! A60   A(12,25,26)           126.3314         estimate D2E/DX2                !
 ! A61   A(1,27,7)             112.5789         estimate D2E/DX2                !
 ! A62   A(1,27,72)            123.6939         estimate D2E/DX2                !
 ! A63   A(7,27,72)            123.5925         estimate D2E/DX2                !
 ! A64   A(10,28,12)           121.0613         estimate D2E/DX2                !
 ! A65   A(10,28,43)           117.8966         estimate D2E/DX2                !
 ! A66   A(12,28,43)           121.019          estimate D2E/DX2                !
 ! A67   A(4,29,5)             119.8866         estimate D2E/DX2                !
 ! A68   A(4,29,31)            121.6161         estimate D2E/DX2                !
 ! A69   A(5,29,31)            118.4662         estimate D2E/DX2                !
 ! A70   A(2,30,8)             120.6607         estimate D2E/DX2                !
 ! A71   A(2,30,37)            119.6272         estimate D2E/DX2                !
 ! A72   A(8,30,37)            119.6761         estimate D2E/DX2                !
 ! A73   A(29,31,32)           118.2756         estimate D2E/DX2                !
 ! A74   A(29,31,33)           120.8688         estimate D2E/DX2                !
 ! A75   A(32,31,33)           120.8532         estimate D2E/DX2                !
 ! A76   A(31,32,34)           119.6802         estimate D2E/DX2                !
 ! A77   A(31,32,59)           119.578          estimate D2E/DX2                !
 ! A78   A(34,32,59)           120.6985         estimate D2E/DX2                !
 ! A79   A(31,33,35)           119.3363         estimate D2E/DX2                !
 ! A80   A(31,33,55)           120.5917         estimate D2E/DX2                !
 ! A81   A(35,33,55)           120.0394         estimate D2E/DX2                !
 ! A82   A(32,34,36)           120.0294         estimate D2E/DX2                !
 ! A83   A(32,34,58)           119.6777         estimate D2E/DX2                !
 ! A84   A(36,34,58)           120.2905         estimate D2E/DX2                !
 ! A85   A(33,35,36)           119.591          estimate D2E/DX2                !
 ! A86   A(33,35,56)           120.264          estimate D2E/DX2                !
 ! A87   A(36,35,56)           120.1442         estimate D2E/DX2                !
 ! A88   A(34,36,35)           120.0926         estimate D2E/DX2                !
 ! A89   A(34,36,57)           119.8946         estimate D2E/DX2                !
 ! A90   A(35,36,57)           120.0128         estimate D2E/DX2                !
 ! A91   A(30,37,38)           120.0416         estimate D2E/DX2                !
 ! A92   A(30,37,39)           119.4384         estimate D2E/DX2                !
 ! A93   A(38,37,39)           120.5197         estimate D2E/DX2                !
 ! A94   A(37,38,40)           119.5634         estimate D2E/DX2                !
 ! A95   A(37,38,60)           120.4416         estimate D2E/DX2                !
 ! A96   A(40,38,60)           119.9593         estimate D2E/DX2                !
 ! A97   A(37,39,41)           119.7159         estimate D2E/DX2                !
 ! A98   A(37,39,64)           119.7439         estimate D2E/DX2                !
 ! A99   A(41,39,64)           120.5016         estimate D2E/DX2                !
 ! A100  A(38,40,42)           119.7049         estimate D2E/DX2                !
 ! A101  A(38,40,61)           120.2264         estimate D2E/DX2                !
 ! A102  A(42,40,61)           120.067          estimate D2E/DX2                !
 ! A103  A(39,41,42)           120.0512         estimate D2E/DX2                !
 ! A104  A(39,41,63)           119.7953         estimate D2E/DX2                !
 ! A105  A(42,41,63)           120.1523         estimate D2E/DX2                !
 ! A106  A(40,42,41)           120.0485         estimate D2E/DX2                !
 ! A107  A(40,42,62)           120.011          estimate D2E/DX2                !
 ! A108  A(41,42,62)           119.9405         estimate D2E/DX2                !
 ! A109  A(28,43,44)           118.5758         estimate D2E/DX2                !
 ! A110  A(28,43,45)           120.3529         estimate D2E/DX2                !
 ! A111  A(44,43,45)           121.0695         estimate D2E/DX2                !
 ! A112  A(43,44,46)           119.5162         estimate D2E/DX2                !
 ! A113  A(43,44,65)           119.7264         estimate D2E/DX2                !
 ! A114  A(46,44,65)           120.7135         estimate D2E/DX2                !
 ! A115  A(43,45,47)           119.3103         estimate D2E/DX2                !
 ! A116  A(43,45,69)           120.4772         estimate D2E/DX2                !
 ! A117  A(47,45,69)           120.177          estimate D2E/DX2                !
 ! A118  A(44,46,48)           119.9598         estimate D2E/DX2                !
 ! A119  A(44,46,66)           119.7248         estimate D2E/DX2                !
 ! A120  A(48,46,66)           120.3133         estimate D2E/DX2                !
 ! A121  A(45,47,48)           119.5924         estimate D2E/DX2                !
 ! A122  A(45,47,68)           120.1892         estimate D2E/DX2                !
 ! A123  A(48,47,68)           120.2172         estimate D2E/DX2                !
 ! A124  A(46,48,47)           120.1236         estimate D2E/DX2                !
 ! A125  A(46,48,67)           119.8981         estimate D2E/DX2                !
 ! A126  A(47,48,67)           119.9783         estimate D2E/DX2                !
 ! A127  A(24,49,74)           126.1853         estimate D2E/DX2                !
 ! A128  A(24,49,77)           122.1632         estimate D2E/DX2                !
 ! A129  A(74,49,77)           111.6514         estimate D2E/DX2                !
 ! A130  A(71,50,74)           124.0069         estimate D2E/DX2                !
 ! A131  A(71,50,75)           123.7561         estimate D2E/DX2                !
 ! A132  A(74,50,75)           112.2319         estimate D2E/DX2                !
 ! A133  A(6,52,73)            126.1009         estimate D2E/DX2                !
 ! A134  A(6,52,78)            122.2288         estimate D2E/DX2                !
 ! A135  A(73,52,78)           111.6703         estimate D2E/DX2                !
 ! A136  A(70,53,73)           123.978          estimate D2E/DX2                !
 ! A137  A(70,53,79)           123.7667         estimate D2E/DX2                !
 ! A138  A(73,53,79)           112.2505         estimate D2E/DX2                !
 ! A139  A(52,73,53)           111.1849         estimate D2E/DX2                !
 ! A140  A(52,73,54)           124.6092         estimate D2E/DX2                !
 ! A141  A(53,73,54)           124.1895         estimate D2E/DX2                !
 ! A142  A(49,74,50)           111.1797         estimate D2E/DX2                !
 ! A143  A(49,74,51)           124.6563         estimate D2E/DX2                !
 ! A144  A(50,74,51)           124.1489         estimate D2E/DX2                !
 ! A145  A(50,75,76)           125.0129         estimate D2E/DX2                !
 ! A146  A(50,75,77)           111.1056         estimate D2E/DX2                !
 ! A147  A(76,75,77)           123.8808         estimate D2E/DX2                !
 ! A148  A(49,77,75)            93.2304         estimate D2E/DX2                !
 ! A149  A(52,78,79)            93.2226         estimate D2E/DX2                !
 ! A150  A(53,79,78)           111.0626         estimate D2E/DX2                !
 ! A151  A(53,79,80)           124.9992         estimate D2E/DX2                !
 ! A152  A(78,79,80)           123.9378         estimate D2E/DX2                !
 ! A153  A(16,81,17)            89.4583         estimate D2E/DX2                !
 ! A154  A(16,81,18)            90.5412         estimate D2E/DX2                !
 ! A155  A(17,81,19)            89.3358         estimate D2E/DX2                !
 ! A156  A(18,81,19)            90.6644         estimate D2E/DX2                !
 ! A157  L(16,81,19,18,-1)     181.2057         estimate D2E/DX2                !
 ! A158  L(17,81,18,19,-1)     180.0002         estimate D2E/DX2                !
 ! A159  L(16,81,19,18,-2)     181.7963         estimate D2E/DX2                !
 ! A160  L(17,81,18,19,-2)     179.9908         estimate D2E/DX2                !
 ! D1    D(24,1,17,10)          -1.9514         estimate D2E/DX2                !
 ! D2    D(24,1,17,81)         177.0942         estimate D2E/DX2                !
 ! D3    D(27,1,17,10)        -178.6723         estimate D2E/DX2                !
 ! D4    D(27,1,17,81)           0.3733         estimate D2E/DX2                !
 ! D5    D(17,1,24,11)          -4.3422         estimate D2E/DX2                !
 ! D6    D(17,1,24,49)         177.3173         estimate D2E/DX2                !
 ! D7    D(27,1,24,11)         172.4349         estimate D2E/DX2                !
 ! D8    D(27,1,24,49)          -5.9056         estimate D2E/DX2                !
 ! D9    D(17,1,27,7)           28.1067         estimate D2E/DX2                !
 ! D10   D(17,1,27,72)        -155.984          estimate D2E/DX2                !
 ! D11   D(24,1,27,7)         -148.1212         estimate D2E/DX2                !
 ! D12   D(24,1,27,72)          27.7881         estimate D2E/DX2                !
 ! D13   D(20,2,18,4)            3.3291         estimate D2E/DX2                !
 ! D14   D(20,2,18,81)        -178.3594         estimate D2E/DX2                !
 ! D15   D(30,2,18,4)         -172.7667         estimate D2E/DX2                !
 ! D16   D(30,2,18,81)           5.5449         estimate D2E/DX2                !
 ! D17   D(18,2,20,3)           -5.006          estimate D2E/DX2                !
 ! D18   D(18,2,20,21)         176.6286         estimate D2E/DX2                !
 ! D19   D(30,2,20,3)          171.2572         estimate D2E/DX2                !
 ! D20   D(30,2,20,21)          -7.1082         estimate D2E/DX2                !
 ! D21   D(18,2,30,8)           16.2264         estimate D2E/DX2                !
 ! D22   D(18,2,30,37)        -165.9626         estimate D2E/DX2                !
 ! D23   D(20,2,30,8)         -159.3401         estimate D2E/DX2                !
 ! D24   D(20,2,30,37)          18.4709         estimate D2E/DX2                !
 ! D25   D(15,3,4,18)          177.0364         estimate D2E/DX2                !
 ! D26   D(15,3,4,29)           -1.5622         estimate D2E/DX2                !
 ! D27   D(20,3,4,18)           -2.3708         estimate D2E/DX2                !
 ! D28   D(20,3,4,29)          179.0307         estimate D2E/DX2                !
 ! D29   D(4,3,20,2)             4.2248         estimate D2E/DX2                !
 ! D30   D(4,3,20,21)         -177.4108         estimate D2E/DX2                !
 ! D31   D(15,3,20,2)         -175.1786         estimate D2E/DX2                !
 ! D32   D(15,3,20,21)           3.1857         estimate D2E/DX2                !
 ! D33   D(3,4,18,2)            -0.8147         estimate D2E/DX2                !
 ! D34   D(3,4,18,81)         -179.142          estimate D2E/DX2                !
 ! D35   D(29,4,18,2)          177.7986         estimate D2E/DX2                !
 ! D36   D(29,4,18,81)          -0.5287         estimate D2E/DX2                !
 ! D37   D(3,4,29,5)          -162.2306         estimate D2E/DX2                !
 ! D38   D(3,4,29,31)           15.7093         estimate D2E/DX2                !
 ! D39   D(18,4,29,5)           19.4288         estimate D2E/DX2                !
 ! D40   D(18,4,29,31)        -162.6313         estimate D2E/DX2                !
 ! D41   D(22,5,16,7)           -8.2544         estimate D2E/DX2                !
 ! D42   D(22,5,16,81)         171.0448         estimate D2E/DX2                !
 ! D43   D(29,5,16,7)          167.5918         estimate D2E/DX2                !
 ! D44   D(29,5,16,81)         -13.109          estimate D2E/DX2                !
 ! D45   D(16,5,22,6)           10.6407         estimate D2E/DX2                !
 ! D46   D(16,5,22,23)        -170.7186         estimate D2E/DX2                !
 ! D47   D(29,5,22,6)         -165.3607         estimate D2E/DX2                !
 ! D48   D(29,5,22,23)          13.28           estimate D2E/DX2                !
 ! D49   D(16,5,29,4)          -12.4209         estimate D2E/DX2                !
 ! D50   D(16,5,29,31)         169.5746         estimate D2E/DX2                !
 ! D51   D(22,5,29,4)          162.7336         estimate D2E/DX2                !
 ! D52   D(22,5,29,31)         -15.2708         estimate D2E/DX2                !
 ! D53   D(22,6,7,16)            4.3068         estimate D2E/DX2                !
 ! D54   D(22,6,7,27)         -172.2684         estimate D2E/DX2                !
 ! D55   D(52,6,7,16)         -177.0416         estimate D2E/DX2                !
 ! D56   D(52,6,7,27)            6.3832         estimate D2E/DX2                !
 ! D57   D(7,6,22,5)            -9.3778         estimate D2E/DX2                !
 ! D58   D(7,6,22,23)          171.9755         estimate D2E/DX2                !
 ! D59   D(52,6,22,5)          171.9539         estimate D2E/DX2                !
 ! D60   D(52,6,22,23)          -6.6928         estimate D2E/DX2                !
 ! D61   D(7,6,52,73)           29.8123         estimate D2E/DX2                !
 ! D62   D(7,6,52,78)         -150.0971         estimate D2E/DX2                !
 ! D63   D(22,6,52,73)        -151.7538         estimate D2E/DX2                !
 ! D64   D(22,6,52,78)          28.3368         estimate D2E/DX2                !
 ! D65   D(6,7,16,5)             2.4158         estimate D2E/DX2                !
 ! D66   D(6,7,16,81)         -176.8405         estimate D2E/DX2                !
 ! D67   D(27,7,16,5)          178.956          estimate D2E/DX2                !
 ! D68   D(27,7,16,81)          -0.3003         estimate D2E/DX2                !
 ! D69   D(6,7,27,1)           147.7204         estimate D2E/DX2                !
 ! D70   D(6,7,27,72)          -28.1938         estimate D2E/DX2                !
 ! D71   D(16,7,27,1)          -28.3111         estimate D2E/DX2                !
 ! D72   D(16,7,27,72)         155.7747         estimate D2E/DX2                !
 ! D73   D(19,8,9,14)         -177.719          estimate D2E/DX2                !
 ! D74   D(19,8,9,25)            2.6397         estimate D2E/DX2                !
 ! D75   D(30,8,9,14)            1.0875         estimate D2E/DX2                !
 ! D76   D(30,8,9,25)         -178.5537         estimate D2E/DX2                !
 ! D77   D(9,8,19,12)           -1.7994         estimate D2E/DX2                !
 ! D78   D(9,8,19,81)          179.7759         estimate D2E/DX2                !
 ! D79   D(30,8,19,12)         179.3845         estimate D2E/DX2                !
 ! D80   D(30,8,19,81)           0.9598         estimate D2E/DX2                !
 ! D81   D(9,8,30,2)           162.0714         estimate D2E/DX2                !
 ! D82   D(9,8,30,37)          -15.7386         estimate D2E/DX2                !
 ! D83   D(19,8,30,2)          -19.3145         estimate D2E/DX2                !
 ! D84   D(19,8,30,37)         162.8755         estimate D2E/DX2                !
 ! D85   D(8,9,25,12)           -2.2145         estimate D2E/DX2                !
 ! D86   D(8,9,25,26)          177.8857         estimate D2E/DX2                !
 ! D87   D(14,9,25,12)         178.1446         estimate D2E/DX2                !
 ! D88   D(14,9,25,26)          -1.7552         estimate D2E/DX2                !
 ! D89   D(17,10,11,13)        171.3446         estimate D2E/DX2                !
 ! D90   D(17,10,11,24)         -9.9595         estimate D2E/DX2                !
 ! D91   D(28,10,11,13)        -12.7678         estimate D2E/DX2                !
 ! D92   D(28,10,11,24)        165.9282         estimate D2E/DX2                !
 ! D93   D(11,10,17,1)           7.5101         estimate D2E/DX2                !
 ! D94   D(11,10,17,81)       -171.5525         estimate D2E/DX2                !
 ! D95   D(28,10,17,1)        -168.2703         estimate D2E/DX2                !
 ! D96   D(28,10,17,81)         12.6672         estimate D2E/DX2                !
 ! D97   D(11,10,28,12)       -164.2844         estimate D2E/DX2                !
 ! D98   D(11,10,28,43)         13.9856         estimate D2E/DX2                !
 ! D99   D(17,10,28,12)         10.7651         estimate D2E/DX2                !
 ! D100  D(17,10,28,43)       -170.9649         estimate D2E/DX2                !
 ! D101  D(10,11,24,1)           8.9463         estimate D2E/DX2                !
 ! D102  D(10,11,24,49)       -172.6994         estimate D2E/DX2                !
 ! D103  D(13,11,24,1)        -172.3508         estimate D2E/DX2                !
 ! D104  D(13,11,24,49)          6.0035         estimate D2E/DX2                !
 ! D105  D(25,12,19,8)           0.4867         estimate D2E/DX2                !
 ! D106  D(25,12,19,81)        178.9042         estimate D2E/DX2                !
 ! D107  D(28,12,19,8)        -178.6682         estimate D2E/DX2                !
 ! D108  D(28,12,19,81)         -0.2506         estimate D2E/DX2                !
 ! D109  D(19,12,25,9)           1.2009         estimate D2E/DX2                !
 ! D110  D(19,12,25,26)       -178.8988         estimate D2E/DX2                !
 ! D111  D(28,12,25,9)        -179.6559         estimate D2E/DX2                !
 ! D112  D(28,12,25,26)          0.2443         estimate D2E/DX2                !
 ! D113  D(19,12,28,10)        -17.0062         estimate D2E/DX2                !
 ! D114  D(19,12,28,43)        164.7779         estimate D2E/DX2                !
 ! D115  D(25,12,28,10)        164.0034         estimate D2E/DX2                !
 ! D116  D(25,12,28,43)        -14.2125         estimate D2E/DX2                !
 ! D117  D(5,16,81,17)        -156.8532         estimate D2E/DX2                !
 ! D118  D(5,16,81,18)          23.1376         estimate D2E/DX2                !
 ! D119  D(7,16,81,17)          22.2917         estimate D2E/DX2                !
 ! D120  D(7,16,81,18)        -157.7175         estimate D2E/DX2                !
 ! D121  D(1,17,81,16)         -22.0296         estimate D2E/DX2                !
 ! D122  D(1,17,81,19)         159.7665         estimate D2E/DX2                !
 ! D123  D(10,17,81,16)        156.8571         estimate D2E/DX2                !
 ! D124  D(10,17,81,19)        -21.3468         estimate D2E/DX2                !
 ! D125  D(2,18,81,16)         164.6033         estimate D2E/DX2                !
 ! D126  D(2,18,81,19)         -17.1929         estimate D2E/DX2                !
 ! D127  D(4,18,81,16)         -17.3543         estimate D2E/DX2                !
 ! D128  D(4,18,81,19)         160.8494         estimate D2E/DX2                !
 ! D129  D(8,19,81,17)        -165.9026         estimate D2E/DX2                !
 ! D130  D(8,19,81,18)          14.1066         estimate D2E/DX2                !
 ! D131  D(12,19,81,17)         15.9364         estimate D2E/DX2                !
 ! D132  D(12,19,81,18)       -164.0544         estimate D2E/DX2                !
 ! D133  D(1,24,49,74)         -29.9133         estimate D2E/DX2                !
 ! D134  D(1,24,49,77)         149.9209         estimate D2E/DX2                !
 ! D135  D(11,24,49,74)        152.0193         estimate D2E/DX2                !
 ! D136  D(11,24,49,77)        -28.1465         estimate D2E/DX2                !
 ! D137  D(10,28,43,44)       -105.202          estimate D2E/DX2                !
 ! D138  D(10,28,43,45)         74.3081         estimate D2E/DX2                !
 ! D139  D(12,28,43,44)         73.0688         estimate D2E/DX2                !
 ! D140  D(12,28,43,45)       -107.4211         estimate D2E/DX2                !
 ! D141  D(4,29,31,32)         -71.2606         estimate D2E/DX2                !
 ! D142  D(4,29,31,33)         109.2918         estimate D2E/DX2                !
 ! D143  D(5,29,31,32)         106.7076         estimate D2E/DX2                !
 ! D144  D(5,29,31,33)         -72.74           estimate D2E/DX2                !
 ! D145  D(2,30,37,38)          72.6851         estimate D2E/DX2                !
 ! D146  D(2,30,37,39)        -107.5345         estimate D2E/DX2                !
 ! D147  D(8,30,37,38)        -109.4821         estimate D2E/DX2                !
 ! D148  D(8,30,37,39)          70.2983         estimate D2E/DX2                !
 ! D149  D(29,31,32,34)       -175.624          estimate D2E/DX2                !
 ! D150  D(29,31,32,59)          2.0001         estimate D2E/DX2                !
 ! D151  D(33,31,32,34)          3.8236         estimate D2E/DX2                !
 ! D152  D(33,31,32,59)       -178.5523         estimate D2E/DX2                !
 ! D153  D(29,31,33,35)       -178.3726         estimate D2E/DX2                !
 ! D154  D(29,31,33,55)         -0.4511         estimate D2E/DX2                !
 ! D155  D(32,31,33,35)          2.1941         estimate D2E/DX2                !
 ! D156  D(32,31,33,55)       -179.8843         estimate D2E/DX2                !
 ! D157  D(31,32,34,36)         -6.2607         estimate D2E/DX2                !
 ! D158  D(31,32,34,58)        173.1803         estimate D2E/DX2                !
 ! D159  D(59,32,34,36)        176.1424         estimate D2E/DX2                !
 ! D160  D(59,32,34,58)         -4.4166         estimate D2E/DX2                !
 ! D161  D(31,33,35,36)         -5.7384         estimate D2E/DX2                !
 ! D162  D(31,33,35,56)        173.9232         estimate D2E/DX2                !
 ! D163  D(55,33,35,36)        176.3283         estimate D2E/DX2                !
 ! D164  D(55,33,35,56)         -4.0101         estimate D2E/DX2                !
 ! D165  D(32,34,36,35)          2.6948         estimate D2E/DX2                !
 ! D166  D(32,34,36,57)       -177.2626         estimate D2E/DX2                !
 ! D167  D(58,34,36,35)       -176.7428         estimate D2E/DX2                !
 ! D168  D(58,34,36,57)          3.2999         estimate D2E/DX2                !
 ! D169  D(33,35,36,34)          3.3319         estimate D2E/DX2                !
 ! D170  D(33,35,36,57)       -176.7108         estimate D2E/DX2                !
 ! D171  D(56,35,36,34)       -176.3301         estimate D2E/DX2                !
 ! D172  D(56,35,36,57)          3.6272         estimate D2E/DX2                !
 ! D173  D(30,37,38,40)        177.2202         estimate D2E/DX2                !
 ! D174  D(30,37,38,60)         -0.6079         estimate D2E/DX2                !
 ! D175  D(39,37,38,40)         -2.5578         estimate D2E/DX2                !
 ! D176  D(39,37,38,60)        179.6141         estimate D2E/DX2                !
 ! D177  D(30,37,39,41)        176.8837         estimate D2E/DX2                !
 ! D178  D(30,37,39,64)         -0.8668         estimate D2E/DX2                !
 ! D179  D(38,37,39,41)         -3.3369         estimate D2E/DX2                !
 ! D180  D(38,37,39,64)        178.9126         estimate D2E/DX2                !
 ! D181  D(37,38,40,42)          5.701          estimate D2E/DX2                !
 ! D182  D(37,38,40,61)       -173.8129         estimate D2E/DX2                !
 ! D183  D(60,38,40,42)       -176.4602         estimate D2E/DX2                !
 ! D184  D(60,38,40,61)          4.0258         estimate D2E/DX2                !
 ! D185  D(37,39,41,42)          6.0751         estimate D2E/DX2                !
 ! D186  D(37,39,41,63)       -173.528          estimate D2E/DX2                !
 ! D187  D(64,39,41,42)       -176.1918         estimate D2E/DX2                !
 ! D188  D(64,39,41,63)          4.2052         estimate D2E/DX2                !
 ! D189  D(38,40,42,41)         -2.9892         estimate D2E/DX2                !
 ! D190  D(38,40,42,62)        176.9756         estimate D2E/DX2                !
 ! D191  D(61,40,42,41)        176.5255         estimate D2E/DX2                !
 ! D192  D(61,40,42,62)         -3.5097         estimate D2E/DX2                !
 ! D193  D(39,41,42,40)         -2.919          estimate D2E/DX2                !
 ! D194  D(39,41,42,62)        177.1162         estimate D2E/DX2                !
 ! D195  D(63,41,42,40)        176.6826         estimate D2E/DX2                !
 ! D196  D(63,41,42,62)         -3.2822         estimate D2E/DX2                !
 ! D197  D(28,43,44,46)        176.0533         estimate D2E/DX2                !
 ! D198  D(28,43,44,65)         -1.5513         estimate D2E/DX2                !
 ! D199  D(45,43,44,46)         -3.4532         estimate D2E/DX2                !
 ! D200  D(45,43,44,65)        178.9422         estimate D2E/DX2                !
 ! D201  D(28,43,45,47)        177.8281         estimate D2E/DX2                !
 ! D202  D(28,43,45,69)         -0.0088         estimate D2E/DX2                !
 ! D203  D(44,43,45,47)         -2.6742         estimate D2E/DX2                !
 ! D204  D(44,43,45,69)        179.4889         estimate D2E/DX2                !
 ! D205  D(43,44,46,48)          6.2307         estimate D2E/DX2                !
 ! D206  D(43,44,46,66)       -173.2415         estimate D2E/DX2                !
 ! D207  D(65,44,46,48)       -176.1889         estimate D2E/DX2                !
 ! D208  D(65,44,46,66)          4.3389         estimate D2E/DX2                !
 ! D209  D(43,45,47,48)          5.9741         estimate D2E/DX2                !
 ! D210  D(43,45,47,68)       -173.6279         estimate D2E/DX2                !
 ! D211  D(69,45,47,48)       -176.1824         estimate D2E/DX2                !
 ! D212  D(69,45,47,68)          4.2156         estimate D2E/DX2                !
 ! D213  D(44,46,48,47)         -2.9169         estimate D2E/DX2                !
 ! D214  D(44,46,48,67)        177.0712         estimate D2E/DX2                !
 ! D215  D(66,46,48,47)        176.5523         estimate D2E/DX2                !
 ! D216  D(66,46,48,67)         -3.4597         estimate D2E/DX2                !
 ! D217  D(45,47,48,46)         -3.2244         estimate D2E/DX2                !
 ! D218  D(45,47,48,67)        176.7875         estimate D2E/DX2                !
 ! D219  D(68,47,48,46)        176.3774         estimate D2E/DX2                !
 ! D220  D(68,47,48,67)         -3.6107         estimate D2E/DX2                !
 ! D221  D(24,49,74,50)       -174.1591         estimate D2E/DX2                !
 ! D222  D(24,49,74,51)          4.4724         estimate D2E/DX2                !
 ! D223  D(77,49,74,50)          5.9919         estimate D2E/DX2                !
 ! D224  D(77,49,74,51)       -175.3766         estimate D2E/DX2                !
 ! D225  D(24,49,77,75)        172.7738         estimate D2E/DX2                !
 ! D226  D(74,49,77,75)         -7.3701         estimate D2E/DX2                !
 ! D227  D(71,50,74,49)        178.1417         estimate D2E/DX2                !
 ! D228  D(71,50,74,51)         -0.4981         estimate D2E/DX2                !
 ! D229  D(75,50,74,49)         -1.0656         estimate D2E/DX2                !
 ! D230  D(75,50,74,51)       -179.7054         estimate D2E/DX2                !
 ! D231  D(71,50,75,76)         -3.8685         estimate D2E/DX2                !
 ! D232  D(71,50,75,77)        176.4232         estimate D2E/DX2                !
 ! D233  D(74,50,75,76)        175.3411         estimate D2E/DX2                !
 ! D234  D(74,50,75,77)         -4.3672         estimate D2E/DX2                !
 ! D235  D(6,52,73,53)         174.0444         estimate D2E/DX2                !
 ! D236  D(6,52,73,54)          -4.5351         estimate D2E/DX2                !
 ! D237  D(78,52,73,53)         -6.0381         estimate D2E/DX2                !
 ! D238  D(78,52,73,54)        175.3824         estimate D2E/DX2                !
 ! D239  D(6,52,78,79)        -172.6553         estimate D2E/DX2                !
 ! D240  D(73,52,78,79)          7.4235         estimate D2E/DX2                !
 ! D241  D(70,53,73,52)       -178.1462         estimate D2E/DX2                !
 ! D242  D(70,53,73,54)          0.4404         estimate D2E/DX2                !
 ! D243  D(79,53,73,52)          1.0787         estimate D2E/DX2                !
 ! D244  D(79,53,73,54)        179.6653         estimate D2E/DX2                !
 ! D245  D(70,53,79,78)       -176.3821         estimate D2E/DX2                !
 ! D246  D(70,53,79,80)          3.8467         estimate D2E/DX2                !
 ! D247  D(73,53,79,78)          4.3911         estimate D2E/DX2                !
 ! D248  D(73,53,79,80)       -175.3801         estimate D2E/DX2                !
 ! D249  D(50,75,77,49)          6.6678         estimate D2E/DX2                !
 ! D250  D(76,75,77,49)       -173.0444         estimate D2E/DX2                !
 ! D251  D(52,78,79,53)         -6.7073         estimate D2E/DX2                !
 ! D252  D(52,78,79,80)        173.0668         estimate D2E/DX2                !
 --------------------------------------------------------------------------------
 Trust Radius=3.00D-01 FncErr=1.00D-07 GrdErr=1.00D-06 EigMax=2.50D+02 EigMin=1.00D-04
 Number of steps in this run=    486 maximum allowed number of steps=    486.
 GradGradGradGradGradGradGradGradGradGradGradGradGradGradGradGradGradGrad

 Stoichiometry    C46H12F15N4OPdS2(1-)
 Framework group  C1[X(C46H12F15N4OPdS2)]
 Deg. of freedom   237
 Full point group                 C1      NOp   1
 Largest Abelian subgroup         C1      NOp   1
 Largest concise Abelian subgroup C1      NOp   1
                         Standard orientation:                         
 ---------------------------------------------------------------------
 Center     Atomic      Atomic             Coordinates (Angstroms)
 Number     Number       Type             X           Y           Z
 ---------------------------------------------------------------------
      1          6           0       -1.244620   -2.458482   -0.960262
      2          6           0        1.206538    2.807613   -0.247137
      3          6           0        3.495004    2.603049    0.263325
      4          6           0        2.798981    1.250257    0.232299
      5          6           0        2.722191   -1.101281    0.081169
      6          6           0        2.464023   -3.134186   -0.774895
      7          6           0        1.268773   -2.448248   -0.941338
      8          6           0       -1.226150    2.846086   -0.146004
      9          6           0       -2.585816    3.548486    0.078245
     10          6           0       -2.724670   -1.120923    0.049156
     11          6           0       -3.316969   -2.368705   -0.080441
     12          6           0       -2.810090    1.250357    0.269328
     13          1           0       -4.272151   -2.667394    0.293360
     14          1           0       -2.761491    4.602298    0.028244
     15          1           0        4.516855    2.785479    0.520101
     16          7           0        1.373295   -1.242460   -0.412378
     17          7           0       -1.381500   -1.243751   -0.421150
     18          7           0        1.385217    1.501588   -0.105859
     19          7           0       -1.407857    1.512234   -0.051085
     20          6           0        2.567809    3.524681   -0.083004
     21          1           0        2.739376    4.572237   -0.195966
     22          6           0        3.324015   -2.344539   -0.020611
     23          1           0        4.270337   -2.634742    0.378813
     24          6           0       -2.435647   -3.151940   -0.820912
     25          6           0       -3.513660    2.600956    0.356535
     26          1           0       -4.543244    2.764451    0.591094
     27          6           0        0.021244   -3.031164   -1.558345
     28          6           0       -3.364595    0.028548    0.468163
     29          6           0        3.353215    0.046097    0.493469
     30          6           0       -0.007778    3.480537   -0.428522
     31          6           0        4.694780   -0.077956    1.199378
     32          6           0        5.835831    0.285533    0.506771
     33          6           0        4.774473   -0.560863    2.518055
     34          6           0        7.087192    0.097910    1.091332
     35          6           0        6.022197   -0.629575    3.149063
     36          6           0        7.182451   -0.332772    2.422000
     37          6           0       -0.002620    4.936412   -0.891282
     38          6           0        0.332228    5.251415   -2.219663
     39          6           0       -0.335414    5.940597    0.009686
     40          6           0        0.277119    6.583520   -2.648948
     41          6           0       -0.269434    7.278179   -0.388595
     42          6           0        0.006654    7.599894   -1.724407
     43          6           0       -4.725657   -0.115072    1.121922
     44          6           0       -5.850519    0.234952    0.393824
     45          6           0       -4.834478   -0.602439    2.432071
     46          6           0       -7.114740    0.033375    0.944215
     47          6           0       -6.095539   -0.682929    3.029697
     48          6           0       -7.239507   -0.396646    2.272832
     49          6           0       -2.726211   -4.547101   -1.347541
     50          6           0       -2.827885   -6.495462   -2.755822
     51          1           0       -1.415228   -4.667225   -3.061981
     52          6           0        2.780685   -4.525715   -1.294647
     53          6           0        2.934209   -6.469330   -2.703227
     54          1           0        1.509004   -4.655558   -3.035254
     55          9           0        3.655482   -0.916985    3.189590
     56          9           0        6.107881   -0.973298    4.453334
     57          9           0        8.392686   -0.460278    3.001921
     58          9           0        8.201895    0.321584    0.367850
     59          9           0        5.727186    0.773165   -0.746469
     60          9           0        0.663446    4.273426   -3.093223
     61          9           0        0.474076    6.887410   -3.950876
     62          9           0        0.012370    8.889534   -2.118807
     63          9           0       -0.464205    8.257514    0.517620
     64          9           0       -0.675474    5.618961    1.274519
     65          9           0       -5.713081    0.721415   -0.857616
     66          9           0       -8.212612    0.243185    0.191193
     67          9           0       -8.462381   -0.534407    2.822309
     68          9           0       -6.209828   -1.026765    4.331066
     69          9           0       -3.728288   -0.950506    3.128787
     70          1           0        2.703305   -7.081145   -3.548342
     71          1           0       -2.572804   -7.106699   -3.594540
     72          8           0        0.033622   -3.952301   -2.418367
     73          6           0        2.264169   -5.099929   -2.415149
     74          6           0       -2.179290   -5.118062   -2.456631
     75          6           0       -3.774266   -6.830383   -1.835108
     76          1           0       -4.394262   -7.695394   -1.882732
     77         16           0       -3.852708   -5.636876   -0.543935
     78         16           0        3.901191   -5.604619   -0.468323
     79          6           0        3.864515   -6.796208   -1.763480
     80          1           0        4.494493   -7.654970   -1.799864
     81         46           0        0.011701    0.138714   -0.262537
 ---------------------------------------------------------------------
 Rotational constants (GHZ):           0.0271224           0.0241868           0.0155510
 General basis read from cards:  (5D, 7F)
 ======================================================================================================
                                       Pseudopotential Parameters
 ======================================================================================================
  Center     Atomic      Valence      Angular      Power
  Number     Number     Electrons     Momentum     of R      Exponent        Coefficient   SO-Coeffient
 ======================================================================================================
    1          6
                                   No pseudopotential on this center.
    2          6
                                   No pseudopotential on this center.
    3          6
                                   No pseudopotential on this center.
    4          6
                                   No pseudopotential on this center.
    5          6
                                   No pseudopotential on this center.
    6          6
                                   No pseudopotential on this center.
    7          6
                                   No pseudopotential on this center.
    8          6
                                   No pseudopotential on this center.
    9          6
                                   No pseudopotential on this center.
   10          6
                                   No pseudopotential on this center.
   11          6
                                   No pseudopotential on this center.
   12          6
                                   No pseudopotential on this center.
   13          1
                                   No pseudopotential on this center.
   14          1
                                   No pseudopotential on this center.
   15          1
                                   No pseudopotential on this center.
   16          7
                                   No pseudopotential on this center.
   17          7
                                   No pseudopotential on this center.
   18          7
                                   No pseudopotential on this center.
   19          7
                                   No pseudopotential on this center.
   20          6
                                   No pseudopotential on this center.
   21          1
                                   No pseudopotential on this center.
   22          6
                                   No pseudopotential on this center.
   23          1
                                   No pseudopotential on this center.
   24          6
                                   No pseudopotential on this center.
   25          6
                                   No pseudopotential on this center.
   26          1
                                   No pseudopotential on this center.
   27          6
                                   No pseudopotential on this center.
   28          6
                                   No pseudopotential on this center.
   29          6
                                   No pseudopotential on this center.
   30          6
                                   No pseudopotential on this center.
   31          6
                                   No pseudopotential on this center.
   32          6
                                   No pseudopotential on this center.
   33          6
                                   No pseudopotential on this center.
   34          6
                                   No pseudopotential on this center.
   35          6
                                   No pseudopotential on this center.
   36          6
                                   No pseudopotential on this center.
   37          6
                                   No pseudopotential on this center.
   38          6
                                   No pseudopotential on this center.
   39          6
                                   No pseudopotential on this center.
   40          6
                                   No pseudopotential on this center.
   41          6
                                   No pseudopotential on this center.
   42          6
                                   No pseudopotential on this center.
   43          6
                                   No pseudopotential on this center.
   44          6
                                   No pseudopotential on this center.
   45          6
                                   No pseudopotential on this center.
   46          6
                                   No pseudopotential on this center.
   47          6
                                   No pseudopotential on this center.
   48          6
                                   No pseudopotential on this center.
   49          6
                                   No pseudopotential on this center.
   50          6
                                   No pseudopotential on this center.
   51          1
                                   No pseudopotential on this center.
   52          6
                                   No pseudopotential on this center.
   53          6
                                   No pseudopotential on this center.
   54          1
                                   No pseudopotential on this center.
   55          9
                                   No pseudopotential on this center.
   56          9
                                   No pseudopotential on this center.
   57          9
                                   No pseudopotential on this center.
   58          9
                                   No pseudopotential on this center.
   59          9
                                   No pseudopotential on this center.
   60          9
                                   No pseudopotential on this center.
   61          9
                                   No pseudopotential on this center.
   62          9
                                   No pseudopotential on this center.
   63          9
                                   No pseudopotential on this center.
   64          9
                                   No pseudopotential on this center.
   65          9
                                   No pseudopotential on this center.
   66          9
                                   No pseudopotential on this center.
   67          9
                                   No pseudopotential on this center.
   68          9
                                   No pseudopotential on this center.
   69          9
                                   No pseudopotential on this center.
   70          1
                                   No pseudopotential on this center.
   71          1
                                   No pseudopotential on this center.
   72          8
                                   No pseudopotential on this center.
   73          6
                                   No pseudopotential on this center.
   74          6
                                   No pseudopotential on this center.
   75          6
                                   No pseudopotential on this center.
   76          1
                                   No pseudopotential on this center.
   77         16
                                   No pseudopotential on this center.
   78         16
                                   No pseudopotential on this center.
   79          6
                                   No pseudopotential on this center.
   80          1
                                   No pseudopotential on this center.
   81         46           18
                                      F and up 
                                                     0      598.3336444       -0.05631770    0.00000000
                                                     1      162.4298290      -20.12880360    0.00000000
                                                     2       51.5714771     -105.81979230    0.00000000
                                                     2       16.4888260      -42.57333450    0.00000000
                                                     2        5.8287656       -3.61650860    0.00000000
                                      S - F
                                                     0       73.3806304        3.00036510    0.00000000
                                                     1       14.7550438       32.43500930    0.00000000
                                                     2       17.8350204      459.08303830    0.00000000
                                                     2       12.7111477     -868.06290290    0.00000000
                                                     2        9.3292063      514.47260980    0.00000000
                                      P - F
                                                     0       55.6689877        4.95930990    0.00000000
                                                     1       64.2337771       21.17110290    0.00000000
                                                     2       17.6254952      605.05600920    0.00000000
                                                     2       11.9058155     -726.96418460    0.00000000
                                                     2        8.5100832      396.32748830    0.00000000
                                      D - F
                                                     0       49.9994728        3.05087450    0.00000000
                                                     1       39.7477547       22.25065800    0.00000000
                                                     2       11.4321366      674.83576980    0.00000000
                                                     2        9.1790080    -1040.85540480    0.00000000
                                                     2        7.5624429      505.93751470    0.00000000
 ======================================================================================================
 There are  1384 symmetry adapted cartesian basis functions of A   symmetry.
 There are  1314 symmetry adapted basis functions of A   symmetry.
  1314 basis functions,  2357 primitive gaussians,  1384 cartesian basis functions
   255 alpha electrons      255 beta electrons
       nuclear repulsion energy     11651.4198501315 Hartrees.
 NAtoms=   81 NActive=   81 NUniq=   81 SFac= 1.00D+00 NAtFMM=   60 NAOKFM=T Big=T
 Integral buffers will be    131072 words long.
 Raffenetti 2 integral format.
 Two-electron integral symmetry is turned on.
 One-electron integrals computed using PRISM.
   1 Symmetry operations used in ECPInt.
 ECPInt:  NShTT=   74691 NPrTT=  411268 LenC2=   50700 LenP2D=  145066.
 LDataN:  DoStor=T MaxTD1= 5 Len=  102
 NBasis=  1314 RedAO= T EigKep=  1.18D-06  NBF=  1314
 NBsUse=  1295 1.00D-06 EigRej=  6.39D-07 NBFU=  1295
 Defaulting to unpruned grid for atomic number  46.
 ExpMin= 2.62D-02 ExpMax= 2.19D+04 ExpMxC= 3.30D+03 IAcc=3 IRadAn=         5 AccDes= 0.00D+00
 Harris functional with IExCor=  402 and IRadAn=       5 diagonalized for initial guess.
 HarFok:  IExCor=  402 AccDes= 0.00D+00 IRadAn=         5 IDoV= 1 UseB2=F ITyADJ=14
 ICtDFT=  3500011 ScaDFX=  1.000000  1.000000  1.000000  1.000000
 Defaulting to unpruned grid for atomic number  46.
 FoFCou: FMM=F IPFlag=           0 FMFlag=      100000 FMFlg1=        2001
         NFxFlg=           0 DoJE=T BraDBF=F KetDBF=T FulRan=T
         wScrn=  0.000000 ICntrl=       500 IOpCl=  0 I1Cent=   200000004 NGrid=           0
         NMat0=    1 NMatS0=      1 NMatT0=    0 NMatD0=    1 NMtDS0=    0 NMtDT0=    0
 Petite list used in FoFCou.
 Requested convergence on RMS density matrix=1.00D-08 within1000 cycles.
 Requested convergence on MAX density matrix=1.00D-06.
 Requested convergence on             energy=1.00D-06.
 No special actions if energy rises.
 Defaulting to unpruned grid for atomic number  46.
 Defaulting to unpruned grid for atomic number  46.
 Defaulting to unpruned grid for atomic number  46.
 Defaulting to unpruned grid for atomic number  46.
 Defaulting to unpruned grid for atomic number  46.
 Defaulting to unpruned grid for atomic number  46.
 Defaulting to unpruned grid for atomic number  46.
 Defaulting to unpruned grid for atomic number  46.
 Defaulting to unpruned grid for atomic number  46.
 Defaulting to unpruned grid for atomic number  46.
 Defaulting to unpruned grid for atomic number  46.
 Defaulting to unpruned grid for atomic number  46.
 Defaulting to unpruned grid for atomic number  46.
 Defaulting to unpruned grid for atomic number  46.
 Defaulting to unpruned grid for atomic number  46.
 Defaulting to unpruned grid for atomic number  46.
 EnCoef did     4 forward-backward iterations
 EnCoef did   100 forward-backward iterations
 EnCoef did   100 forward-backward iterations
 EnCoef did     1 forward-backward iterations
 Restarting incremental Fock formation.
 SCF Done:  E(RB3LYP) =  -4475.08410667     A.U. after   26 cycles
            NFock= 26  Conv=0.24D-08     -V/T= 2.0240

 **********************************************************************

            Population analysis using the SCF Density.

 **********************************************************************

 Orbital symmetries:
       Occupied  (A) (A) (A) (A) (A) (A) (A) (A) (A) (A) (A) (A)
                 (A) (A) (A) (A) (A) (A) (A) (A) (A) (A) (A) (A)
                 (A) (A) (A) (A) (A) (A) (A) (A) (A) (A) (A) (A)
                 (A) (A) (A) (A) (A) (A) (A) (A) (A) (A) (A) (A)
                 (A) (A) (A) (A) (A) (A) (A) (A) (A) (A) (A) (A)
                 (A) (A) (A) (A) (A) (A) (A) (A) (A) (A) (A) (A)
                 (A) (A) (A) (A) (A) (A) (A) (A) (A) (A) (A) (A)
                 (A) (A) (A) (A) (A) (A) (A) (A) (A) (A) (A) (A)
                 (A) (A) (A) (A) (A) (A) (A) (A) (A) (A) (A) (A)
                 (A) (A) (A) (A) (A) (A) (A) (A) (A) (A) (A) (A)
                 (A) (A) (A) (A) (A) (A) (A) (A) (A) (A) (A) (A)
                 (A) (A) (A) (A) (A) (A) (A) (A) (A) (A) (A) (A)
                 (A) (A) (A) (A) (A) (A) (A) (A) (A) (A) (A) (A)
                 (A) (A) (A) (A) (A) (A) (A) (A) (A) (A) (A) (A)
                 (A) (A) (A) (A) (A) (A) (A) (A) (A) (A) (A) (A)
                 (A) (A) (A) (A) (A) (A) (A) (A) (A) (A) (A) (A)
                 (A) (A) (A) (A) (A) (A) (A) (A) (A) (A) (A) (A)
                 (A) (A) (A) (A) (A) (A) (A) (A) (A) (A) (A) (A)
                 (A) (A) (A) (A) (A) (A) (A) (A) (A) (A) (A) (A)
                 (A) (A) (A) (A) (A) (A) (A) (A) (A) (A) (A) (A)
                 (A) (A) (A) (A) (A) (A) (A) (A) (A) (A) (A) (A)
                 (A) (A) (A)
       Virtual   (A) (A) (A) (A) (A) (A) (A) (A) (A) (A) (A) (A)
                 (A) (A) (A) (A) (A) (A) (A) (A) (A) (A) (A) (A)
                 (A) (A) (A) (A) (A) (A) (A) (A) (A) (A) (A) (A)
                 (A) (A) (A) (A) (A) (A) (A) (A) (A) (A) (A) (A)
                 (A) (A) (A) (A) (A) (A) (A) (A) (A) (A) (A) (A)
                 (A) (A) (A) (A) (A) (A) (A) (A) (A) (A) (A) (A)
                 (A) (A) (A) (A) (A) (A) (A) (A) (A) (A) (A) (A)
                 (A) (A) (A) (A) (A) (A) (A) (A) (A) (A) (A) (A)
                 (A) (A) (A) (A) (A) (A) (A) (A) (A) (A) (A) (A)
                 (A) (A) (A) (A) (A) (A) (A) (A) (A) (A) (A) (A)
                 (A) (A) (A) (A) (A) (A) (A) (A) (A) (A) (A) (A)
                 (A) (A) (A) (A) (A) (A) (A) (A) (A) (A) (A) (A)
                 (A) (A) (A) (A) (A) (A) (A) (A) (A) (A) (A) (A)
                 (A) (A) (A) (A) (A) (A) (A) (A) (A) (A) (A) (A)
                 (A) (A) (A) (A) (A) (A) (A) (A) (A) (A) (A) (A)
                 (A) (A) (A) (A) (A) (A) (A) (A) (A) (A) (A) (A)
                 (A) (A) (A) (A) (A) (A) (A) (A) (A) (A) (A) (A)
                 (A) (A) (A) (A) (A) (A) (A) (A) (A) (A) (A) (A)
                 (A) (A) (A) (A) (A) (A) (A) (A) (A) (A) (A) (A)
                 (A) (A) (A) (A) (A) (A) (A) (A) (A) (A) (A) (A)
                 (A) (A) (A) (A) (A) (A) (A) (A) (A) (A) (A) (A)
                 (A) (A) (A) (A) (A) (A) (A) (A) (A) (A) (A) (A)
                 (A) (A) (A) (A) (A) (A) (A) (A) (A) (A) (A) (A)
                 (A) (A) (A) (A) (A) (A) (A) (A) (A) (A) (A) (A)
                 (A) (A) (A) (A) (A) (A) (A) (A) (A) (A) (A) (A)
                 (A) (A) (A) (A) (A) (A) (A) (A) (A) (A) (A) (A)
                 (A) (A) (A) (A) (A) (A) (A) (A) (A) (A) (A) (A)
                 (A) (A) (A) (A) (A) (A) (A) (A) (A) (A) (A) (A)
                 (A) (A) (A) (A) (A) (A) (A) (A) (A) (A) (A) (A)
                 (A) (A) (A) (A) (A) (A) (A) (A) (A) (A) (A) (A)
                 (A) (A) (A) (A) (A) (A) (A) (A) (A) (A) (A) (A)
                 (A) (A) (A) (A) (A) (A) (A) (A) (A) (A) (A) (A)
                 (A) (A) (A) (A) (A) (A) (A) (A) (A) (A) (A) (A)
                 (A) (A) (A) (A) (A) (A) (A) (A) (A) (A) (A) (A)
                 (A) (A) (A) (A) (A) (A) (A) (A) (A) (A) (A) (A)
                 (A) (A) (A) (A) (A) (A) (A) (A) (A) (A) (A) (A)
                 (A) (A) (A) (A) (A) (A) (A) (A) (A) (A) (A) (A)
                 (A) (A) (A) (A) (A) (A) (A) (A) (A) (A) (A) (A)
                 (A) (A) (A) (A) (A) (A) (A) (A) (A) (A) (A) (A)
                 (A) (A) (A) (A) (A) (A) (A) (A) (A) (A) (A) (A)
                 (A) (A) (A) (A) (A) (A) (A) (A) (A) (A) (A) (A)
                 (A) (A) (A) (A) (A) (A) (A) (A) (A) (A) (A) (A)
                 (A) (A) (A) (A) (A) (A) (A) (A) (A) (A) (A) (A)
                 (A) (A) (A) (A) (A) (A) (A) (A) (A) (A) (A) (A)
                 (A) (A) (A) (A) (A) (A) (A) (A) (A) (A) (A) (A)
                 (A) (A) (A) (A) (A) (A) (A) (A) (A) (A) (A) (A)
                 (A) (A) (A) (A) (A) (A) (A) (A) (A) (A) (A) (A)
                 (A) (A) (A) (A) (A) (A) (A) (A) (A) (A) (A) (A)
                 (A) (A) (A) (A) (A) (A) (A) (A) (A) (A) (A) (A)
                 (A) (A) (A) (A) (A) (A) (A) (A) (A) (A) (A) (A)
                 (A) (A) (A) (A) (A) (A) (A) (A) (A) (A) (A) (A)
                 (A) (A) (A) (A) (A) (A) (A) (A) (A) (A) (A) (A)
                 (A) (A) (A) (A) (A) (A) (A) (A) (A) (A) (A) (A)
                 (A) (A) (A) (A) (A) (A) (A) (A) (A) (A) (A) (A)
                 (A) (A) (A) (A) (A) (A) (A) (A) (A) (A) (A) (A)
                 (A) (A) (A) (A) (A) (A) (A) (A) (A) (A) (A) (A)
                 (A) (A) (A) (A) (A) (A) (A) (A) (A) (A) (A) (A)
                 (A) (A) (A) (A) (A) (A) (A) (A) (A) (A) (A) (A)
                 (A) (A) (A) (A) (A) (A) (A) (A) (A) (A) (A) (A)
                 (A) (A) (A) (A) (A) (A) (A) (A) (A) (A) (A) (A)
                 (A) (A) (A) (A) (A) (A) (A) (A) (A) (A) (A) (A)
                 (A) (A) (A) (A) (A) (A) (A) (A) (A) (A) (A) (A)
                 (A) (A) (A) (A) (A) (A) (A) (A) (A) (A) (A) (A)
                 (A) (A) (A) (A) (A) (A) (A) (A) (A) (A) (A) (A)
                 (A) (A) (A) (A) (A) (A) (A) (A) (A) (A) (A) (A)
                 (A) (A) (A) (A) (A) (A) (A) (A) (A) (A) (A) (A)
                 (A) (A) (A) (A) (A) (A) (A) (A) (A) (A) (A) (A)
                 (A) (A) (A) (A) (A) (A) (A) (A) (A) (A) (A) (A)
                 (A) (A) (A) (A) (A) (A) (A) (A) (A) (A) (A) (A)
                 (A) (A) (A) (A) (A) (A) (A) (A) (A) (A) (A) (A)
                 (A) (A) (A) (A) (A) (A) (A) (A) (A) (A) (A) (A)
                 (A) (A) (A) (A) (A) (A) (A) (A) (A) (A) (A) (A)
                 (A) (A) (A) (A) (A) (A) (A) (A) (A) (A) (A) (A)
                 (A) (A) (A) (A) (A) (A) (A) (A) (A) (A) (A) (A)
                 (A) (A) (A) (A) (A) (A) (A) (A) (A) (A) (A) (A)
                 (A) (A) (A) (A) (A) (A) (A) (A) (A) (A) (A) (A)
                 (A) (A) (A) (A) (A) (A) (A) (A) (A) (A) (A) (A)
                 (A) (A) (A) (A) (A) (A) (A) (A) (A) (A) (A) (A)
                 (A) (A) (A) (A) (A) (A) (A) (A) (A) (A) (A) (A)
                 (A) (A) (A) (A) (A) (A) (A) (A) (A) (A) (A) (A)
                 (A) (A) (A) (A) (A) (A) (A) (A) (A) (A) (A) (A)
                 (A) (A) (A) (A) (A) (A) (A) (A) (A) (A) (A) (A)
                 (A) (A) (A) (A) (A) (A) (A) (A) (A) (A) (A) (A)
                 (A) (A) (A) (A) (A) (A) (A) (A) (A) (A) (A) (A)
                 (A) (A) (A) (A) (A) (A) (A) (A) (A) (A) (A) (A)
                 (A) (A) (A) (A) (A) (A) (A) (A) (A) (A) (A) (A)
                 (A) (A) (A) (A) (A) (A) (A) (A)
 The electronic state is 1-A.
 Alpha  occ. eigenvalues --  -88.81010 -88.80966 -24.70158 -24.70126 -24.70053
 Alpha  occ. eigenvalues --  -24.69602 -24.69594 -24.69546 -24.69489 -24.69474
 Alpha  occ. eigenvalues --  -24.69435 -24.68795 -24.68730 -24.68674 -24.68584
 Alpha  occ. eigenvalues --  -24.68444 -24.68417 -19.04732 -14.28732 -14.28483
 Alpha  occ. eigenvalues --  -14.27878 -14.27584 -10.26691 -10.26565 -10.26546
 Alpha  occ. eigenvalues --  -10.26154 -10.26079 -10.26002 -10.26001 -10.25996
 Alpha  occ. eigenvalues --  -10.25955 -10.25901 -10.25678 -10.25575 -10.25553
 Alpha  occ. eigenvalues --  -10.25425 -10.25388 -10.19885 -10.18600 -10.18347
 Alpha  occ. eigenvalues --  -10.18301 -10.16835 -10.16708 -10.16208 -10.16184
 Alpha  occ. eigenvalues --  -10.14714 -10.14615 -10.13978 -10.13932 -10.13688
 Alpha  occ. eigenvalues --  -10.13659 -10.13653 -10.13537 -10.13438 -10.13287
 Alpha  occ. eigenvalues --  -10.13259 -10.13246 -10.13236 -10.12950 -10.12856
 Alpha  occ. eigenvalues --  -10.11553 -10.11516 -10.11410 -10.11361 -10.09808
 Alpha  occ. eigenvalues --  -10.09677 -10.09628 -10.09602  -7.88250  -7.88207
 Alpha  occ. eigenvalues --   -5.84637  -5.84593  -5.84254  -5.84210  -5.83850
 Alpha  occ. eigenvalues --   -5.83807  -3.29904  -2.03194  -2.03085  -1.98867
 Alpha  occ. eigenvalues --   -1.21947  -1.21907  -1.21850  -1.20977  -1.20932
 Alpha  occ. eigenvalues --   -1.20866  -1.20388  -1.20321  -1.20282  -1.19595
 Alpha  occ. eigenvalues --   -1.19542  -1.19447  -1.19199  -1.19075  -1.19074
 Alpha  occ. eigenvalues --   -0.94420  -0.89537  -0.88604  -0.88244  -0.86946
 Alpha  occ. eigenvalues --   -0.85825  -0.85702  -0.85454  -0.78454  -0.78392
 Alpha  occ. eigenvalues --   -0.78031  -0.77283  -0.75891  -0.73732  -0.73641
 Alpha  occ. eigenvalues --   -0.73506  -0.72301  -0.71475  -0.70976  -0.70613
 Alpha  occ. eigenvalues --   -0.70203  -0.69999  -0.69009  -0.66066  -0.65785
 Alpha  occ. eigenvalues --   -0.63708  -0.63520  -0.63410  -0.62722  -0.62437
[...]
 Alpha virt. eigenvalues --    0.69656   0.70794   0.71073   0.72352   0.72533
 Alpha virt. eigenvalues --    0.72570   0.73303   0.74237   0.74523   0.75113
 Alpha virt. eigenvalues --    0.75191   0.75248   0.75882   0.76394   0.76578
 Alpha virt. eigenvalues --    0.76847   0.76945   0.77094   0.77557   0.77726
 Alpha virt. eigenvalues --    0.77764   0.78425   0.78500   0.79049   0.79284
 Alpha virt. eigenvalues --    0.79420   0.79630   0.80079   0.80165   0.80440
 Alpha virt. eigenvalues --    0.81008   0.81051   0.81395   0.81460   0.82405
 Alpha virt. eigenvalues --    0.82654   0.82845   0.83657   0.83693   0.84132
 Alpha virt. eigenvalues --    0.84793   0.85095   0.85471   0.85660   0.85938
 Alpha virt. eigenvalues --    0.86000   0.86377   0.86446   0.86904   0.87252
 Alpha virt. eigenvalues --    0.87784   0.88262   0.88711   0.88876   0.89040
 Alpha virt. eigenvalues --    0.89223   0.89737   0.89852   0.90346   0.90667
 Alpha virt. eigenvalues --    0.90682   0.91184   0.91422   0.91526   0.91894
 Alpha virt. eigenvalues --    0.92059   0.92217   0.92357   0.93002   0.93340
 Alpha virt. eigenvalues --    0.93650   0.93998   0.94266   0.94855   0.94956
 Alpha virt. eigenvalues --    0.95636   0.95770   0.96025   0.96123   0.96163
 Alpha virt. eigenvalues --    0.96543   0.97075   0.97242   0.97344   0.97767
 Alpha virt. eigenvalues --    0.98099   0.98248   0.98866   0.99230   0.99534
 Alpha virt. eigenvalues --    0.99965   0.99992   1.00615   1.00619   1.00900
 Alpha virt. eigenvalues --    1.01253   1.01641   1.01651   1.01890   1.02093
 Alpha virt. eigenvalues --    1.02392   1.02603   1.02708   1.02952   1.03454
 Alpha virt. eigenvalues --    1.03679   1.04063   1.04289   1.04811   1.05001
 Alpha virt. eigenvalues --    1.05746   1.06147   1.06287   1.06770   1.07002
 Alpha virt. eigenvalues --    1.07931   1.08189   1.08506   1.09440   1.09618
 Alpha virt. eigenvalues --    1.11251   1.11596   1.12088   1.12375   1.12697
 Alpha virt. eigenvalues --    1.12898   1.13394   1.14577   1.15014   1.15542
 Alpha virt. eigenvalues --    1.16270   1.16682   1.17071   1.17076   1.17728
 Alpha virt. eigenvalues --    1.17837   1.18407   1.19055   1.19538   1.19889
 Alpha virt. eigenvalues --    1.20210   1.20781   1.20842   1.21006   1.21328
 Alpha virt. eigenvalues --    1.21661   1.21813   1.22045   1.22264   1.22473
 Alpha virt. eigenvalues --    1.22654   1.22945   1.23153   1.23185   1.23684
 Alpha virt. eigenvalues --    1.23783   1.24255   1.25072   1.25386   1.25609
 Alpha virt. eigenvalues --    1.25891   1.26181   1.26867   1.27508   1.28524
 Alpha virt. eigenvalues --    1.28578   1.28655   1.28915   1.29393   1.29476
 Alpha virt. eigenvalues --    1.29854   1.30247   1.30518   1.30880   1.31030
 Alpha virt. eigenvalues --    1.31285   1.31426   1.32111   1.32272   1.32864
 Alpha virt. eigenvalues --    1.33174   1.33973   1.34188   1.34277   1.34407
 Alpha virt. eigenvalues --    1.34484   1.34793   1.35002   1.35537   1.35889
 Alpha virt. eigenvalues --    1.35935   1.36069   1.36270   1.36612   1.37151
 Alpha virt. eigenvalues --    1.37468   1.37647   1.37725   1.38126   1.38415
 Alpha virt. eigenvalues --    1.38572   1.38848   1.39317   1.39366   1.39855
 Alpha virt. eigenvalues --    1.40186   1.40209   1.40862   1.41522   1.41606
 Alpha virt. eigenvalues --    1.42807   1.43112   1.43369   1.43672   1.43937
 Alpha virt. eigenvalues --    1.44487   1.44748   1.45003   1.45331   1.45447
 Alpha virt. eigenvalues --    1.45505   1.45689   1.46224   1.46558   1.47033
 Alpha virt. eigenvalues --    1.47223   1.48178   1.48759   1.49551   1.49666
 Alpha virt. eigenvalues --    1.50443   1.51009   1.51157   1.51658   1.51808
 Alpha virt. eigenvalues --    1.52441   1.52628   1.53396   1.53720   1.53947
 Alpha virt. eigenvalues --    1.54136   1.55483   1.56111   1.56206   1.56829
 Alpha virt. eigenvalues --    1.58212   1.58485   1.58901   1.60065   1.60417
 Alpha virt. eigenvalues --    1.62395   1.63215   1.64528   1.65065   1.65433
 Alpha virt. eigenvalues --    1.65896   1.65955   1.66066   1.66193   1.66544
 Alpha virt. eigenvalues --    1.66721   1.66878   1.67005   1.67244   1.67381
 Alpha virt. eigenvalues --    1.67602   1.67628   1.67932   1.68083   1.68245
 Alpha virt. eigenvalues --    1.68600   1.68931   1.69136   1.69317   1.69591
 Alpha virt. eigenvalues --    1.69933   1.70025   1.70532   1.70573   1.71324
 Alpha virt. eigenvalues --    1.71677   1.71806   1.72760   1.73174   1.73267
 Alpha virt. eigenvalues --    1.73439   1.73737   1.73856   1.73967   1.74138
 Alpha virt. eigenvalues --    1.74360   1.74468   1.74996   1.75538   1.75782
 Alpha virt. eigenvalues --    1.75989   1.76278   1.76351   1.76759   1.77013
 Alpha virt. eigenvalues --    1.77165   1.77284   1.77351   1.77456   1.78379
 Alpha virt. eigenvalues --    1.78474   1.78692   1.78801   1.78869   1.79247
 Alpha virt. eigenvalues --    1.79354   1.79525   1.79628   1.79898   1.79982
 Alpha virt. eigenvalues --    1.81384   1.81743   1.82024   1.82034   1.82714
 Alpha virt. eigenvalues --    1.82957   1.83113   1.83289   1.83578   1.83609
 Alpha virt. eigenvalues --    1.83752   1.84003   1.84034   1.84252   1.84280
 Alpha virt. eigenvalues --    1.84585   1.84740   1.84919   1.85318   1.85544
 Alpha virt. eigenvalues --    1.85868   1.85990   1.86103   1.86199   1.86424
 Alpha virt. eigenvalues --    1.86567   1.86967   1.87151   1.87506   1.87897
 Alpha virt. eigenvalues --    1.87983   1.88087   1.88548   1.88705   1.88956
 Alpha virt. eigenvalues --    1.89019   1.89074   1.89305   1.89469   1.90103
 Alpha virt. eigenvalues --    1.90159   1.90409   1.90635   1.90988   1.91107
 Alpha virt. eigenvalues --    1.91433   1.92050   1.92207   1.92418   1.93180
 Alpha virt. eigenvalues --    1.93273   1.93314   1.93505   1.93543   1.93573
 Alpha virt. eigenvalues --    1.93676   1.93992   1.94426   1.94719   1.95214
 Alpha virt. eigenvalues --    1.95499   1.95615   1.95910   1.96665   1.97386
 Alpha virt. eigenvalues --    1.97648   1.98015   1.98017   1.98397   1.98537
 Alpha virt. eigenvalues --    1.99187   1.99767   1.99939   2.00188   2.00325
 Alpha virt. eigenvalues --    2.00445   2.00837   2.00853   2.01143   2.01335
 Alpha virt. eigenvalues --    2.02427   2.03171   2.03379   2.03621   2.04660
 Alpha virt. eigenvalues --    2.04751   2.05330   2.05461   2.05814   2.06035
 Alpha virt. eigenvalues --    2.06662   2.06828   2.07171   2.07389   2.07742
 Alpha virt. eigenvalues --    2.07766   2.08733   2.08779   2.09787   2.10055
 Alpha virt. eigenvalues --    2.10404   2.11155   2.12000   2.12071   2.12834
 Alpha virt. eigenvalues --    2.13442   2.14160   2.15085   2.15208   2.15537
 Alpha virt. eigenvalues --    2.15816   2.16027   2.16178   2.16649   2.16960
 Alpha virt. eigenvalues --    2.17279   2.18023   2.18796   2.19641   2.20226
 Alpha virt. eigenvalues --    2.20617   2.21035   2.21143   2.21303   2.21637
 Alpha virt. eigenvalues --    2.21812   2.22428   2.22844   2.23729   2.23925
 Alpha virt. eigenvalues --    2.25557   2.26137   2.26631   2.26878   2.26968
 Alpha virt. eigenvalues --    2.27102   2.27748   2.27793   2.27861   2.27928
 Alpha virt. eigenvalues --    2.28649   2.28800   2.28883   2.29187   2.29350
 Alpha virt. eigenvalues --    2.29430   2.29512   2.29817   2.30036   2.30436
 Alpha virt. eigenvalues --    2.30799   2.31295   2.32488   2.32664   2.32987
 Alpha virt. eigenvalues --    2.33002   2.33154   2.33585   2.34041   2.34285
 Alpha virt. eigenvalues --    2.35283   2.35760   2.35958   2.36277   2.36569
 Alpha virt. eigenvalues --    2.37261   2.37526   2.38355   2.38412   2.38671
 Alpha virt. eigenvalues --    2.38764   2.38925   2.39171   2.39844   2.40138
 Alpha virt. eigenvalues --    2.40809   2.41050   2.41113   2.41555   2.41960
 Alpha virt. eigenvalues --    2.42257   2.43015   2.43197   2.43655   2.44121
 Alpha virt. eigenvalues --    2.44451   2.44694   2.45303   2.45466   2.46040
 Alpha virt. eigenvalues --    2.46208   2.46395   2.46779   2.47176   2.47570
 Alpha virt. eigenvalues --    2.47825   2.48693   2.48779   2.49258   2.49685
 Alpha virt. eigenvalues --    2.51057   2.52141   2.52365   2.54232   2.54332
 Alpha virt. eigenvalues --    2.54575   2.54683   2.55076   2.55552   2.55913
 Alpha virt. eigenvalues --    2.56650   2.56975   2.57269   2.57372   2.58786
 Alpha virt. eigenvalues --    2.59580   2.59668   2.59849   2.60003   2.60054
 Alpha virt. eigenvalues --    2.60335   2.60562   2.60802   2.61308   2.61488
 Alpha virt. eigenvalues --    2.61676   2.61989   2.62230   2.62819   2.63408
 Alpha virt. eigenvalues --    2.63627   2.63887   2.64359   2.64456   2.65194
 Alpha virt. eigenvalues --    2.65412   2.66099   2.66512   2.66721   2.66868
 Alpha virt. eigenvalues --    2.67314   2.67688   2.68309   2.68984   2.69099
 Alpha virt. eigenvalues --    2.70351   2.70603   2.71662   2.71927   2.72682
 Alpha virt. eigenvalues --    2.73724   2.74084   2.74793   2.75679   2.76059
 Alpha virt. eigenvalues --    2.77147   2.77575   2.77790   2.78233   2.78644
 Alpha virt. eigenvalues --    2.79008   2.79078   2.80482   2.80837   2.81160
 Alpha virt. eigenvalues --    2.82096   2.82415   2.83100   2.83213   2.84302
 Alpha virt. eigenvalues --    2.86071   2.86473   2.86814   2.89595   2.90917
 Alpha virt. eigenvalues --    2.91980   2.93850   2.94137   2.94863   2.95213
 Alpha virt. eigenvalues --    2.96088   2.97261   2.98510   2.98985   3.00676
 Alpha virt. eigenvalues --    3.01233   3.01678   3.02836   3.04529   3.04962
 Alpha virt. eigenvalues --    3.05574   3.05692   3.05941   3.09024   3.09437
 Alpha virt. eigenvalues --    3.10824   3.11930   3.12417   3.12489   3.12646
 Alpha virt. eigenvalues --    3.13401   3.13920   3.15270   3.16411   3.16938
 Alpha virt. eigenvalues --    3.20027   3.20769   3.21295   3.21772   3.22590
 Alpha virt. eigenvalues --    3.22631   3.23614   3.25442   3.25783   3.26910
 Alpha virt. eigenvalues --    3.27608   3.28168   3.29099   3.29652   3.29701
 Alpha virt. eigenvalues --    3.30179   3.30530   3.31893   3.32025   3.34320
 Alpha virt. eigenvalues --    3.34482   3.36592   3.37308   3.40126   3.40414
 Alpha virt. eigenvalues --    3.40464   3.41494   3.42074   3.42558   3.42656
 Alpha virt. eigenvalues --    3.44189   3.46819   3.46963   3.47045   3.49880
 Alpha virt. eigenvalues --    3.50804   3.51313   3.51885   3.54935   3.71061
 Alpha virt. eigenvalues --    3.72082   3.72983   3.73480   3.73690   3.86193
 Alpha virt. eigenvalues --    3.86665   3.86695   3.87774  19.29768
          Condensed to atoms (all electrons):
 Mulliken charges:
               1
     1  C    0.088758
     2  C    0.204416
     3  C   -0.225374
     4  C    0.420670
     5  C    0.049240
     6  C    0.402224
     7  C    0.083169
     8  C    0.226225
     9  C   -0.308143
    10  C    0.046199
    11  C   -0.529540
    12  C    0.421892
    13  H    0.121539
    14  H    0.115379
    15  H    0.117488
    16  N    0.354689
    17  N    0.354362
    18  N    0.217655
    19  N    0.219249
    20  C   -0.303927
    21  H    0.115081
    22  C   -0.532010
    23  H    0.121553
    24  C    0.402349
    25  C   -0.230176
    26  H    0.117542
    27  C    0.025647
    28  C    0.270067
    29  C    0.279563
    30  C    0.119554
    31  C   -0.734873
    32  C    0.257847
    33  C    0.269721
    34  C    0.193664
    35  C    0.245196
    36  C    0.553641
    37  C   -0.624724
    38  C    0.091254
    39  C    0.008977
    40  C    0.373905
    41  C    0.353107
    42  C    0.460798
    43  C   -0.725726
    44  C    0.250480
    45  C    0.252449
    46  C    0.197879
    47  C    0.252935
    48  C    0.548811
    49  C   -0.526424
    50  C   -0.293989
    51  H    0.164884
    52  C   -0.523182
    53  C   -0.292839
    54  H    0.164692
    55  F   -0.278608
    56  F   -0.349939
    57  F   -0.351708
    58  F   -0.350327
    59  F   -0.276941
    60  F   -0.279164
    61  F   -0.355332
    62  F   -0.351168
    63  F   -0.354286
    64  F   -0.281111
    65  F   -0.276646
    66  F   -0.350299
    67  F   -0.351683
    68  F   -0.350059
    69  F   -0.278909
    70  H    0.120235
    71  H    0.120236
    72  O   -0.551056
    73  C    0.291746
    74  C    0.297740
    75  C   -0.096835
    76  H    0.142093
    77  S    0.017919
    78  S    0.017021
    79  C   -0.097858
    80  H    0.142093
    81  Pd  -0.250981
 Sum of Mulliken charges =  -1.00000
 Mulliken charges with hydrogens summed into heavy atoms:
               1
     1  C    0.088758
     2  C    0.204416
     3  C   -0.107886
     4  C    0.420670
     5  C    0.049240
     6  C    0.402224
     7  C    0.083169
     8  C    0.226225
     9  C   -0.192764
    10  C    0.046199
    11  C   -0.408002
    12  C    0.421892
    16  N    0.354689
    17  N    0.354362
    18  N    0.217655
    19  N    0.219249
    20  C   -0.188846
    22  C   -0.410457
    24  C    0.402349
    25  C   -0.112634
    27  C    0.025647
    28  C    0.270067
    29  C    0.279563
    30  C    0.119554
    31  C   -0.734873
    32  C    0.257847
    33  C    0.269721
    34  C    0.193664
    35  C    0.245196
    36  C    0.553641
    37  C   -0.624724
    38  C    0.091254
    39  C    0.008977
    40  C    0.373905
    41  C    0.353107
    42  C    0.460798
    43  C   -0.725726
    44  C    0.250480
    45  C    0.252449
    46  C    0.197879
    47  C    0.252935
    48  C    0.548811
    49  C   -0.526424
    50  C   -0.173752
    52  C   -0.523182
    53  C   -0.172604
    55  F   -0.278608
    56  F   -0.349939
    57  F   -0.351708
    58  F   -0.350327
    59  F   -0.276941
    60  F   -0.279164
    61  F   -0.355332
    62  F   -0.351168
    63  F   -0.354286
    64  F   -0.281111
    65  F   -0.276646
    66  F   -0.350299
    67  F   -0.351683
    68  F   -0.350059
    69  F   -0.278909
    72  O   -0.551056
    73  C    0.456438
    74  C    0.462624
    75  C    0.045258
    77  S    0.017919
    78  S    0.017021
    79  C    0.044235
    81  Pd  -0.250981
 Electronic spatial extent (au):  <R**2>=          66952.9130
 Charge=             -1.0000 electrons
 Dipole moment (field-independent basis, Debye):
    X=              0.0120    Y=              3.7877    Z=              0.9146  Tot=              3.8966
 Quadrupole moment (field-independent basis, Debye-Ang):
   XX=           -498.6287   YY=           -484.9421   ZZ=           -448.7969
   XY=             -0.0651   XZ=              1.2831   YZ=             -1.8814
 Traceless Quadrupole moment (field-independent basis, Debye-Ang):
   XX=            -21.1728   YY=             -7.4862   ZZ=             28.6590
   XY=             -0.0651   XZ=              1.2831   YZ=             -1.8814
 Octapole moment (field-independent basis, Debye-Ang**2):
  XXX=              2.7702  YYY=            -53.1772  ZZZ=             -1.5356  XYY=             -0.9802
  XXY=            165.0757  XXZ=            -11.3822  XZZ=             -1.3634  YZZ=             27.5940
  YYZ=             30.8302  XYZ=             11.7228
 Hexadecapole moment (field-independent basis, Debye-Ang**3):
 XXXX=         -49408.7332 YYYY=         -42212.7473 ZZZZ=          -4061.1141 XXXY=             18.3195
 XXXZ=            -32.9175 YYYX=            -17.9042 YYYZ=            126.7609 ZZZX=            -10.7731
 ZZZY=            -38.0757 XXYY=         -13310.6629 XXZZ=          -8612.8653 YYZZ=          -7619.1366
 XXYZ=           -183.7777 YYXZ=             68.7051 ZZXY=             -7.2822
 N-N= 1.158441919224D+04 E-N=-3.370856724006D+04  KE= 4.370748077940D+03
 Unable to Open any file for archive entry.
 1\1\GINC-CCNN778\FOpt\RB3LYP\GenECP\C46H12F15N4O1Pd1S2(1-)\CPI\20-Oct-
 2021\0\\# opt b3lyp/genecp geom=connectivity scf=maxcyc=1000\\title\\-
 1,1\C,-1.3022946048,-2.59127974,-0.7692896838\C,1.2796550542,2.9394378
 369,-0.0588090712\C,3.5037317706,2.6026198321,0.1842706195\C,2.8117741
 051,1.3403828786,0.0646802964\C,2.7668391407,-1.1485995332,-0.15679346
 15\C,2.4783045887,-3.3502782771,-0.6475832856\C,1.234665622,-2.6228305
 991,-0.7710591477\C,-1.2073210635,2.9727848633,-0.0649010579\C,-2.4798
 090463,3.6531689145,0.0572306148\C,-2.7985831315,-1.0768396123,-0.1645
 065831\C,-3.4780512017,-2.3181662075,-0.2502115601\C,-2.7812083205,1.4
 135811636,0.0451788687\H,-4.5337002408,-2.4721166909,-0.0781311739\H,-
 2.6153056537,4.7250916589,0.0904491576\H,4.5705482073,2.720992369,0.31
 37260149\N,1.427947793,-1.3127907979,-0.4438238551\N,-1.4635675637,-1.
 2754717,-0.4479323466\N,1.4591898199,1.5842161563,-0.088312069\N,-1.42
 08148356,1.6220175578,-0.0889642412\C,2.5663258809,3.5866400138,0.0917
 475646\H,2.7267769183,4.6545522275,0.1414157379\C,3.4157118147,-2.4058
 194261,-0.2477716512\H,4.4671134522,-2.5864209922,-0.0756103501\C,-2.5
 635098022,-3.2873931012,-0.6437232666\C,-3.4427511068,2.6937851607,0.1
 445266105\H,-4.5082211307,2.8400822221,0.2551218419\C,-0.0412398869,-3
 .1828788626,-1.2073361233\C,-3.4130253442,0.1770780792,0.059389045\C,3
 .4115153112,0.0880234591,0.0781024549\C,0.0448978707,3.6076823182,-0.0
 907311402\C,4.8895622457,0.0363691654,0.3154860313\C,5.8099612909,0.09
 0171578,-0.7371878961\C,5.4209684236,-0.0813662637,1.6044718215\C,7.18
 68554981,0.0352328816,-0.5267223508\C,6.7933791254,-0.139263487,1.8425
 710562\C,7.6795164924,-0.0815685677,0.7703360544\C,0.0680115069,5.1023
 441109,-0.0803179692\C,0.2444620105,5.8429641596,-1.2562192553\C,-0.08
 01231775,5.8425807589,1.0997125966\C,0.2728598505,7.2368032644,-1.2668
 154541\C,-0.058540151,7.2363504136,1.1176432012\C,0.1194342888,7.93615
 42961,-0.0728090892\C,-4.8939317488,0.1647855943,0.2839176842\C,-5.803
 4203787,0.2260798582,-0.777801655\C,-5.4394260994,0.0786355089,1.56951
 43855\C,-7.1830324647,0.2079498875,-0.5792426807\C,-6.8149161319,0.057
 6674221,1.795784\C,-7.6898571834,0.1217479201,0.714762936\C,-2.9084307
 557,-4.7040980217,-0.7675112653\C,-3.1677686438,-6.9427455665,-1.43253
 99951\H,-1.7147268347,-5.5276690807,-2.354111188\C,2.7889471903,-4.774
 1922471,-0.7789974826\C,2.9959135468,-7.0140929807,-1.45798962\H,1.578
 5591882,-5.5590604686,-2.3726482514\F,4.6029511975,-0.1393865096,2.667
 9214567\F,7.2689322447,-0.2487836815,3.0954932484\F,9.0038677695,-0.13
 38524643,0.9863640895\F,8.0427791355,0.0952884973,-1.5620276635\F,5.37
 91476045,0.2053545161,-2.0038136549\F,0.3905401021,5.2127841125,-2.433
 3432143\F,0.4425356917,7.9124018174,-2.4174088386\F,0.143340972,9.2790
 729594,-0.0691269668\F,-0.203045419,7.9115455355,2.2721423761\F,-0.245
 7032718,5.2118174388,2.2743966509\F,-5.3587453224,0.313236394,-2.04191
 3522\F,-8.0280537075,0.274525907,-1.6230989063\F,-9.0169584907,0.10497
 65143,0.9193151547\F,-7.3040674896,-0.0225905584,3.0456658058\F,-4.632
 533386,0.0153775066,2.6410878558\H,2.7714248878,-7.8938413317,-2.05219
 89986\H,-2.9633981719,-7.8313888971,-2.0207443776\O,-0.0544685794,-4.1
 978387857,-1.932264528\C,2.3485153988,-5.7559671145,-1.6418881185\C,-2
 .4901836518,-5.7016406098,-1.6233456811\C,-4.102882079,-6.9017325027,-
 0.4311060047\H,-4.7460010618,-7.6961692917,-0.0764257394\S,-4.16251345
 29,-5.3342678284,0.3055271036\S,4.0256436187,-5.4409781474,0.292036391
 9\C,3.9299000466,-7.0018319636,-0.4547209652\H,4.553099356,-7.81370667
 26,-0.1039930248\Pd,0.0006420133,0.1571276926,-0.2895145218\\Version=E
 S64L-G16RevC.01\State=1-A\HF=-4475.2230801\RMSD=7.574e-09\RMSF=6.176e-
 06\Dipole=0.0194486,1.4670124,0.4446583\Quadrupole=-15.7409917,-5.3163
 476,21.0573393,-0.0033812,0.9505709,-2.9367137\PG=C01 [X(C46H12F15N4O1
 Pd1S2)]\\@
 The archive entry for this job was punched.


 A BIRD IN THE HAND IS SAFER THAN ONE OVERHEAD.

                       -- NEWTON'S SEVENTH LAW
 Job cpu time:       4 days  7 hours 22 minutes 50.0 seconds.
 Elapsed time:       0 days  6 hours 28 minutes  9.0 seconds.
 File lengths (MBytes):  RWF=   1014 Int=      0 D2E=      0 Chk=    125 Scr=      1
 Normal termination of Gaussian 16 at Wed Oct 20 22:09:32 2021.
