 Entering Gaussian System, Link 0=/local/apl/lx/g16c01/g16/._.g16
 Initial command:
 /local/apl/lx/g16c01/g16/l1.exe "/work/users/cpi/4775913.cccms1/Gau-39119.inp" -scrdir="/work/users/cpi/4775913.cccms1/"
 Default CPUs for threads: 0,1,2,3,4,5,6,7,8,9,10,11,12,13,14,15,16,17
 Default is to use a total of  18 processors:
                               18 via shared-memory
                                1 via Linda
 Entering Link 1 = /local/apl/lx/g16c01/g16/l1.exe PID=     39120.
  
 Copyright (c) 1988-2019, Gaussian, Inc.  All Rights Reserved.
  
 This is part of the Gaussian(R) 16 program.  It is based on
 the Gaussian(R) 09 system (copyright 2009, Gaussian, Inc.),
 the Gaussian(R) 03 system (copyright 2003, Gaussian, Inc.),
 the Gaussian(R) 98 system (copyright 1998, Gaussian, Inc.),
 the Gaussian(R) 94 system (copyright 1995, Gaussian, Inc.),
 the Gaussian 92(TM) system (copyright 1992, Gaussian, Inc.),
 the Gaussian 90(TM) system (copyright 1990, Gaussian, Inc.),
 the Gaussian 88(TM) system (copyright 1988, Gaussian, Inc.),
 the Gaussian 86(TM) system (copyright 1986, Carnegie Mellon
 University), and the Gaussian 82(TM) system (copyright 1983,
 Carnegie Mellon University). Gaussian is a federally registered
 trademark of Gaussian, Inc.
  
 This software contains proprietary and confidential information,
 including trade secrets, belonging to Gaussian, Inc.
  
 This software is provided under written license and may be
 used, copied, transmitted, or stored only in accord with that
 written license.
  
 The following legend is applicable only to US Government
 contracts under FAR:
  
                    RESTRICTED RIGHTS LEGEND
  
 Use, reproduction and disclosure by the US Government is
 subject to restrictions as set forth in subparagraphs (a)
 and (c) of the Commercial Computer Software - Restricted
 Rights clause in FAR 52.227-19.
  
 Gaussian, Inc.
 340 Quinnipiac St., Bldg. 40, Wallingford CT 06492
  
  
 ---------------------------------------------------------------
 Warning -- This program may not be used in any manner that
 competes with the business of Gaussian, Inc. or will provide
 assistance to any competitor of Gaussian, Inc.  The licensee
 of this program is prohibited from giving any competitor of
 Gaussian, Inc. access to this program.  By using this program,
 the user acknowledges that Gaussian, Inc. is engaged in the
 business of creating and licensing software in the field of
 computational chemistry and represents and warrants to the
 licensee that it is not a competitor of Gaussian, Inc. and that
 it will not use this program in any manner prohibited above.
 ---------------------------------------------------------------
  

 Cite this work as:
 Gaussian 16, Revision C.01,
 M. J. Frisch, G. W. Trucks, H. B. Schlegel, G. E. Scuseria, 
 M. A. Robb, J. R. Cheeseman, G. Scalmani, V. Barone, 
 G. A. Petersson, H. Nakatsuji, X. Li, M. Caricato, A. V. Marenich, 
 J. Bloino, B. G. Janesko, R. Gomperts, B. Mennucci, H. P. Hratchian, 
 J. V. Ortiz, A. F. Izmaylov, J. L. Sonnenberg, D. Williams-Young, 
 F. Ding, F. Lipparini, F. Egidi, J. Goings, B. Peng, A. Petrone, 
 T. Henderson, D. Ranasinghe, V. G. Zakrzewski, J. Gao, N. Rega, 
 G. Zheng, W. Liang, M. Hada, M. Ehara, K. Toyota, R. Fukuda, 
 J. Hasegawa, M. Ishida, T. Nakajima, Y. Honda, O. Kitao, H. Nakai, 
 T. Vreven, K. Throssell, J. A. Montgomery, Jr., J. E. Peralta, 
 F. Ogliaro, M. J. Bearpark, J. J. Heyd, E. N. Brothers, K. N. Kudin, 
 V. N. Staroverov, T. A. Keith, R. Kobayashi, J. Normand, 
 K. Raghavachari, A. P. Rendell, J. C. Burant, S. S. Iyengar, 
 J. Tomasi, M. Cossi, J. M. Millam, M. Klene, C. Adamo, R. Cammi, 
 J. W. Ochterski, R. L. Martin, K. Morokuma, O. Farkas, 
 J. B. Foresman, and D. J. Fox, Gaussian, Inc., Wallingford CT, 2019.
 
 ******************************************
 Gaussian 16:  ES64L-G16RevC.01  3-Jul-2019
                20-Oct-2021 
 ******************************************
 %mem=100GB
 %nprocshare=16
 Will use up to   16 processors via shared memory.
 %chk=Pd_3C6F5_Por_thiophene_O-.chk
 -----------------------------------------------------
 #p opt b3lyp/genecp geom=connectivity scf=maxcyc=1000
 -----------------------------------------------------
 1/18=20,19=15,26=3,38=1,57=2/1,3;
 2/9=110,12=2,17=6,18=5,40=1/2;
 3/5=7,11=2,16=1,17=8,25=1,30=1,71=1,74=-5/1,2,3;
 4//1;
 5/5=2,7=1000,38=5/2;
 6/7=2,8=2,9=2,10=2,28=1/1;
 7//1,2,3,16;
 1/18=20,19=15,26=3/3(2);
 2/9=110/2;
 99//99;
 2/9=110/2;
 3/5=7,6=1,11=2,16=1,17=8,25=1,30=1,71=1,74=-5,82=7/1,2,3;
 4/5=5,16=3,69=1/1;
 5/5=2,7=1000,38=5/2;
 7//1,2,3,16;
 1/18=20,19=15,26=3/3(-5);
 2/9=110/2;
 6/7=2,8=2,9=2,10=2,19=2,28=1/1;
 99/9=1/99;
 Leave Link    1 at Wed Oct 20 15:41:07 2021, MaxMem= 13421772800 cpu:               1.7 elap:               0.1
 (Enter /local/apl/lx/g16c01/g16/l101.exe)
 -----
 title
 -----
 Symbolic Z-matrix:
 Charge = -1 Multiplicity = 1
 C                    -1.2895   -2.40043  -0.86787 
 C                     1.25007   2.84211  -0.30677 
 C                     3.53851   2.61392   0.19369 
 C                     2.82085   1.27215   0.2021 
 C                     2.7056   -1.08095   0.11209 
 C                     2.40913  -3.13073  -0.68961 
 C                     1.22381  -2.43015  -0.86578 
 C                    -1.18093   2.92229  -0.19063 
 C                    -2.52764   3.65199   0.02442 
 C                    -2.74097  -1.01379   0.1165 
 C                    -3.35394  -2.2548    0.02299 
 C                    -2.78711   1.36342   0.27609 
 H                    -4.31112  -2.5284    0.41065 
 H                    -2.68687   4.70686  -0.05155 
 H                     4.56491   2.78641   0.43894 
 N                     1.35121  -1.21303  -0.36875 
 N                    -1.40325  -1.17023  -0.35933 
 N                     1.40893   1.53743  -0.13309 
 N                    -1.38316   1.59441  -0.06019 
 C                     2.6237    3.54116  -0.17014 
 H                     2.81112   4.58258  -0.31117 
 C                     3.28684  -2.33593   0.0384 
 H                     4.2312   -2.63098   0.43892 
 C                    -2.4904   -3.07084  -0.70286 
 C                    -3.46847   2.72696   0.33313 
 H                    -4.49366   2.91295   0.57018 
 C                    -0.03713  -3.00855  -1.45934 
 C                    -3.35958   0.15619   0.50998 
 C                     3.35767   0.06632   0.49054 
 C                     0.04538   3.52961  -0.49742 
 C                     4.70201  -0.06115   1.19055 
 C                     5.84382   0.26605   0.4813 
 C                     4.78324  -0.5113    2.52067 
 C                     7.0961    0.07338   1.06224 
 C                     6.0341   -0.58387   3.145 
 C                     7.19381  -0.32452   2.4029 
 C                     0.07046   4.97287  -0.99754 
 C                     0.40096   5.24827  -2.33577 
 C                    -0.24      6.00505  -0.12056 
 C                     0.36405   6.56965  -2.79885 
 C                    -0.15553   7.33074  -0.55358 
 C                     0.11628   7.61361  -1.89902 
 C                    -4.71814   0.0513    1.17618 
 C                    -5.84236   0.40058   0.44674 
 C                    -4.82552  -0.4005    2.49913 
 C                    -7.10574   0.23355   1.01046 
 C                    -6.08349  -0.44534   3.10693 
 C                    -7.22803  -0.1602    2.3505 
 C                    -2.80681  -4.47419  -1.19146 
 C                    -2.94933  -6.45614  -2.54839 
 H                    -1.50994  -4.65931  -2.91084 
 F                     3.66345  -0.83204   3.20852 
 F                     6.12344  -0.89537   4.4571 
 F                     8.40589  -0.45656   2.97792 
 F                     8.20912   0.26047   0.32591 
 F                     5.73417   0.72307  -0.78333 
 F                     0.71045   4.243    -3.18602 
 F                     0.5567    6.83684  -4.10944 
 F                     0.13975   8.89246  -2.32653 
 F                    -0.32835   8.336     0.32838 
 F                    -0.57627   5.72146   1.15435 
 F                    -5.70597   0.85252  -0.81769 
 F                    -8.20539   0.44161   0.25954 
 F                    -8.44906  -0.26413   2.9114 
 F                    -6.19412  -0.75381   4.41745 
 F                    -3.72016  -0.74833   3.19727 
 H                    -2.70989  -7.09271  -3.37276 
 O                    -0.04543  -3.95152  -2.29542 
 C                    -2.27682  -5.08213  -2.28906 
 C                    -3.89445  -6.75207  -1.61314 
 H                    -4.52845  -7.60793  -1.63438 
 S                    -3.94485  -5.52474  -0.35264 
 Pd                    0.01284   0.19326  -0.24556 
 H                     2.61402  -4.12359  -1.03187 
 
 ITRead=  0  0  0  0  0  0  0  0  0  0  0  0  0  0  0  0  0  0  0  0
 ITRead=  0  0  0  0  0  0  0  0  0  0  0  0  0  0  0  0  0  0  0  0
 ITRead=  0  0  0  0  0  0  0  0  0  0  0  0  0  0  0  0  0  0  0  0
 ITRead=  0  0  0  0  0  0  0  0  0  0  0  0  0  0
 MicOpt= -1 -1 -1 -1 -1 -1 -1 -1 -1 -1 -1 -1 -1 -1 -1 -1 -1 -1 -1 -1
 MicOpt= -1 -1 -1 -1 -1 -1 -1 -1 -1 -1 -1 -1 -1 -1 -1 -1 -1 -1 -1 -1
 MicOpt= -1 -1 -1 -1 -1 -1 -1 -1 -1 -1 -1 -1 -1 -1 -1 -1 -1 -1 -1 -1
 MicOpt= -1 -1 -1 -1 -1 -1 -1 -1 -1 -1 -1 -1 -1 -1
 NAtoms=     74 NQM=       74 NQMF=       0 NMMI=      0 NMMIF=      0
                NMic=       0 NMicF=      0.
                    Isotopes and Nuclear Properties:
 (Nuclear quadrupole moments (NQMom) in fm**2, nuclear magnetic moments (NMagM)
  in nuclear magnetons)

  Atom         1           2           3           4           5           6           7           8           9          10
 IAtWgt=          12          12          12          12          12          12          12          12          12          12
 AtmWgt=  12.0000000  12.0000000  12.0000000  12.0000000  12.0000000  12.0000000  12.0000000  12.0000000  12.0000000  12.0000000
 NucSpn=           0           0           0           0           0           0           0           0           0           0
 AtZEff=   0.0000000   0.0000000   0.0000000   0.0000000   0.0000000   0.0000000   0.0000000   0.0000000   0.0000000   0.0000000
 NQMom=    0.0000000   0.0000000   0.0000000   0.0000000   0.0000000   0.0000000   0.0000000   0.0000000   0.0000000   0.0000000
 NMagM=    0.0000000   0.0000000   0.0000000   0.0000000   0.0000000   0.0000000   0.0000000   0.0000000   0.0000000   0.0000000
 AtZNuc=   6.0000000   6.0000000   6.0000000   6.0000000   6.0000000   6.0000000   6.0000000   6.0000000   6.0000000   6.0000000

  Atom        11          12          13          14          15          16          17          18          19          20
 IAtWgt=          12          12           1           1           1          14          14          14          14          12
 AtmWgt=  12.0000000  12.0000000   1.0078250   1.0078250   1.0078250  14.0030740  14.0030740  14.0030740  14.0030740  12.0000000
 NucSpn=           0           0           1           1           1           2           2           2           2           0
 AtZEff=   0.0000000   0.0000000   0.0000000   0.0000000   0.0000000   0.0000000   0.0000000   0.0000000   0.0000000   0.0000000
 NQMom=    0.0000000   0.0000000   0.0000000   0.0000000   0.0000000   2.0440000   2.0440000   2.0440000   2.0440000   0.0000000
 NMagM=    0.0000000   0.0000000   2.7928460   2.7928460   2.7928460   0.4037610   0.4037610   0.4037610   0.4037610   0.0000000
 AtZNuc=   6.0000000   6.0000000   1.0000000   1.0000000   1.0000000   7.0000000   7.0000000   7.0000000   7.0000000   6.0000000

  Atom        21          22          23          24          25          26          27          28          29          30
 IAtWgt=           1          12           1          12          12           1          12          12          12          12
 AtmWgt=   1.0078250  12.0000000   1.0078250  12.0000000  12.0000000   1.0078250  12.0000000  12.0000000  12.0000000  12.0000000
 NucSpn=           1           0           1           0           0           1           0           0           0           0
 AtZEff=   0.0000000   0.0000000   0.0000000   0.0000000   0.0000000   0.0000000   0.0000000   0.0000000   0.0000000   0.0000000
 NQMom=    0.0000000   0.0000000   0.0000000   0.0000000   0.0000000   0.0000000   0.0000000   0.0000000   0.0000000   0.0000000
 NMagM=    2.7928460   0.0000000   2.7928460   0.0000000   0.0000000   2.7928460   0.0000000   0.0000000   0.0000000   0.0000000
 AtZNuc=   1.0000000   6.0000000   1.0000000   6.0000000   6.0000000   1.0000000   6.0000000   6.0000000   6.0000000   6.0000000

  Atom        31          32          33          34          35          36          37          38          39          40
 IAtWgt=          12          12          12          12          12          12          12          12          12          12
 AtmWgt=  12.0000000  12.0000000  12.0000000  12.0000000  12.0000000  12.0000000  12.0000000  12.0000000  12.0000000  12.0000000
 NucSpn=           0           0           0           0           0           0           0           0           0           0
 AtZEff=   0.0000000   0.0000000   0.0000000   0.0000000   0.0000000   0.0000000   0.0000000   0.0000000   0.0000000   0.0000000
 NQMom=    0.0000000   0.0000000   0.0000000   0.0000000   0.0000000   0.0000000   0.0000000   0.0000000   0.0000000   0.0000000
 NMagM=    0.0000000   0.0000000   0.0000000   0.0000000   0.0000000   0.0000000   0.0000000   0.0000000   0.0000000   0.0000000
 AtZNuc=   6.0000000   6.0000000   6.0000000   6.0000000   6.0000000   6.0000000   6.0000000   6.0000000   6.0000000   6.0000000

  Atom        41          42          43          44          45          46          47          48          49          50
 IAtWgt=          12          12          12          12          12          12          12          12          12          12
 AtmWgt=  12.0000000  12.0000000  12.0000000  12.0000000  12.0000000  12.0000000  12.0000000  12.0000000  12.0000000  12.0000000
 NucSpn=           0           0           0           0           0           0           0           0           0           0
 AtZEff=   0.0000000   0.0000000   0.0000000   0.0000000   0.0000000   0.0000000   0.0000000   0.0000000   0.0000000   0.0000000
 NQMom=    0.0000000   0.0000000   0.0000000   0.0000000   0.0000000   0.0000000   0.0000000   0.0000000   0.0000000   0.0000000
 NMagM=    0.0000000   0.0000000   0.0000000   0.0000000   0.0000000   0.0000000   0.0000000   0.0000000   0.0000000   0.0000000
 AtZNuc=   6.0000000   6.0000000   6.0000000   6.0000000   6.0000000   6.0000000   6.0000000   6.0000000   6.0000000   6.0000000

  Atom        51          52          53          54          55          56          57          58          59          60
 IAtWgt=           1          19          19          19          19          19          19          19          19          19
 AtmWgt=   1.0078250  18.9984032  18.9984032  18.9984032  18.9984032  18.9984032  18.9984032  18.9984032  18.9984032  18.9984032
 NucSpn=           1           1           1           1           1           1           1           1           1           1
 AtZEff=   0.0000000   0.0000000   0.0000000   0.0000000   0.0000000   0.0000000   0.0000000   0.0000000   0.0000000   0.0000000
 NQMom=    0.0000000   0.0000000   0.0000000   0.0000000   0.0000000   0.0000000   0.0000000   0.0000000   0.0000000   0.0000000
 NMagM=    2.7928460   2.6288670   2.6288670   2.6288670   2.6288670   2.6288670   2.6288670   2.6288670   2.6288670   2.6288670
 AtZNuc=   1.0000000   9.0000000   9.0000000   9.0000000   9.0000000   9.0000000   9.0000000   9.0000000   9.0000000   9.0000000

  Atom        61          62          63          64          65          66          67          68          69          70
 IAtWgt=          19          19          19          19          19          19           1          16          12          12
 AtmWgt=  18.9984032  18.9984032  18.9984032  18.9984032  18.9984032  18.9984032   1.0078250  15.9949146  12.0000000  12.0000000
 NucSpn=           1           1           1           1           1           1           1           0           0           0
 AtZEff=   0.0000000   0.0000000   0.0000000   0.0000000   0.0000000   0.0000000   0.0000000   0.0000000   0.0000000   0.0000000
 NQMom=    0.0000000   0.0000000   0.0000000   0.0000000   0.0000000   0.0000000   0.0000000   0.0000000   0.0000000   0.0000000
 NMagM=    2.6288670   2.6288670   2.6288670   2.6288670   2.6288670   2.6288670   2.7928460   0.0000000   0.0000000   0.0000000
 AtZNuc=   9.0000000   9.0000000   9.0000000   9.0000000   9.0000000   9.0000000   1.0000000   8.0000000   6.0000000   6.0000000

  Atom        71          72          73          74
 IAtWgt=           1          32         106           1
 AtmWgt=   1.0078250  31.9720718 105.9032000   1.0078250
 NucSpn=           1           0           0           1
 AtZEff=   0.0000000   0.0000000   0.0000000   0.0000000
 NQMom=    0.0000000   0.0000000   0.0000000   0.0000000
 NMagM=    2.7928460   0.0000000   0.0000000   2.7928460
 AtZNuc=   1.0000000  16.0000000  46.0000000   1.0000000
 Leave Link  101 at Wed Oct 20 15:41:08 2021, MaxMem= 13421772800 cpu:              20.2 elap:               1.3
 (Enter /local/apl/lx/g16c01/g16/l103.exe)

 GradGradGradGradGradGradGradGradGradGradGradGradGradGradGradGradGradGrad
 Berny optimization.
 Initialization pass.
                           ----------------------------
                           !    Initial Parameters    !
                           ! (Angstroms and Degrees)  !
 --------------------------                            --------------------------
 ! Name  Definition              Value          Derivative Info.                !
 --------------------------------------------------------------------------------
 ! R1    R(1,17)                 1.336          estimate D2E/DX2                !
 ! R2    R(1,24)                 1.3852         estimate D2E/DX2                !
 ! R3    R(1,27)                 1.5126         estimate D2E/DX2                !
 ! R4    R(2,18)                 1.3257         estimate D2E/DX2                !
 ! R5    R(2,20)                 1.5473         estimate D2E/DX2                !
 ! R6    R(2,30)                 1.4001         estimate D2E/DX2                !
 ! R7    R(3,4)                  1.5217         estimate D2E/DX2                !
 ! R8    R(3,15)                 1.0693         estimate D2E/DX2                !
 ! R9    R(3,20)                 1.3524         estimate D2E/DX2                !
 ! R10   R(4,18)                 1.4752         estimate D2E/DX2                !
 ! R11   R(4,29)                 1.3511         estimate D2E/DX2                !
 ! R12   R(5,16)                 1.4433         estimate D2E/DX2                !
 ! R13   R(5,22)                 1.385          estimate D2E/DX2                !
 ! R14   R(5,29)                 1.3728         estimate D2E/DX2                !
 ! R15   R(6,7)                  1.3881         estimate D2E/DX2                !
 ! R16   R(6,22)                 1.39           estimate D2E/DX2                !
 ! R17   R(6,74)                 1.07           estimate D2E/DX2                !
 ! R18   R(7,16)                 1.3209         estimate D2E/DX2                !
 ! R19   R(7,27)                 1.5089         estimate D2E/DX2                !
 ! R20   R(8,9)                  1.5467         estimate D2E/DX2                !
 ! R21   R(8,19)                 1.3495         estimate D2E/DX2                !
 ! R22   R(8,30)                 1.4024         estimate D2E/DX2                !
 ! R23   R(9,14)                 1.0695         estimate D2E/DX2                !
 ! R24   R(9,25)                 1.355          estimate D2E/DX2                !
 ! R25   R(10,11)                1.3873         estimate D2E/DX2                !
 ! R26   R(10,17)                1.4284         estimate D2E/DX2                !
 ! R27   R(10,28)                1.3807         estimate D2E/DX2                !
 ! R28   R(11,13)                1.0683         estimate D2E/DX2                !
 ! R29   R(11,24)                1.3923         estimate D2E/DX2                !
 ! R30   R(12,19)                1.462          estimate D2E/DX2                !
 ! R31   R(12,25)                1.5254         estimate D2E/DX2                !
 ! R32   R(12,28)                1.3564         estimate D2E/DX2                !
 ! R33   R(16,73)                1.9453         estimate D2E/DX2                !
 ! R34   R(17,73)                1.9691         estimate D2E/DX2                !
 ! R35   R(18,73)                1.9413         estimate D2E/DX2                !
 ! R36   R(19,73)                1.9866         estimate D2E/DX2                !
 ! R37   R(20,21)                1.0675         estimate D2E/DX2                !
 ! R38   R(22,23)                1.0674         estimate D2E/DX2                !
 ! R39   R(24,49)                1.5193         estimate D2E/DX2                !
 ! R40   R(25,26)                1.0685         estimate D2E/DX2                !
 ! R41   R(27,68)                1.2603         estimate D2E/DX2                !
 ! R42   R(28,43)                1.5167         estimate D2E/DX2                !
 ! R43   R(29,31)                1.521          estimate D2E/DX2                !
 ! R44   R(30,37)                1.5277         estimate D2E/DX2                !
 ! R45   R(31,32)                1.3834         estimate D2E/DX2                !
 ! R46   R(31,33)                1.4066         estimate D2E/DX2                !
 ! R47   R(32,34)                1.3939         estimate D2E/DX2                !
 ! R48   R(32,56)                1.3491         estimate D2E/DX2                !
 ! R49   R(33,35)                1.3999         estimate D2E/DX2                !
 ! R50   R(33,52)                1.3527         estimate D2E/DX2                !
 ! R51   R(34,36)                1.4019         estimate D2E/DX2                !
 ! R52   R(34,55)                1.3476         estimate D2E/DX2                !
 ! R53   R(35,36)                1.401          estimate D2E/DX2                !
 ! R54   R(35,53)                1.3515         estimate D2E/DX2                !
 ! R55   R(36,54)                1.348          estimate D2E/DX2                !
 ! R56   R(37,38)                1.4057         estimate D2E/DX2                !
 ! R57   R(37,39)                1.3896         estimate D2E/DX2                !
 ! R58   R(38,40)                1.4007         estimate D2E/DX2                !
 ! R59   R(38,57)                1.3525         estimate D2E/DX2                !
 ! R60   R(39,41)                1.3972         estimate D2E/DX2                !
 ! R61   R(39,61)                1.3487         estimate D2E/DX2                !
 ! R62   R(40,42)                1.4003         estimate D2E/DX2                !
 ! R63   R(40,58)                1.3514         estimate D2E/DX2                !
 ! R64   R(41,42)                1.4015         estimate D2E/DX2                !
 ! R65   R(41,60)                1.3484         estimate D2E/DX2                !
 ! R66   R(42,59)                1.3486         estimate D2E/DX2                !
 ! R67   R(43,44)                1.3849         estimate D2E/DX2                !
 ! R68   R(43,45)                1.4021         estimate D2E/DX2                !
 ! R69   R(44,46)                1.3935         estimate D2E/DX2                !
 ! R70   R(44,62)                1.3497         estimate D2E/DX2                !
 ! R71   R(45,47)                1.3978         estimate D2E/DX2                !
 ! R72   R(45,66)                1.3529         estimate D2E/DX2                !
 ! R73   R(46,48)                1.402          estimate D2E/DX2                !
 ! R74   R(46,63)                1.3477         estimate D2E/DX2                !
 ! R75   R(47,48)                1.4012         estimate D2E/DX2                !
 ! R76   R(47,65)                1.3509         estimate D2E/DX2                !
 ! R77   R(48,64)                1.3477         estimate D2E/DX2                !
 ! R78   R(49,69)                1.3621         estimate D2E/DX2                !
 ! R79   R(49,72)                1.7614         estimate D2E/DX2                !
 ! R80   R(50,67)                1.0687         estimate D2E/DX2                !
 ! R81   R(50,69)                1.5516         estimate D2E/DX2                !
 ! R82   R(50,70)                1.3622         estimate D2E/DX2                !
 ! R83   R(51,69)                1.074          estimate D2E/DX2                !
 ! R84   R(70,71)                1.0653         estimate D2E/DX2                !
 ! R85   R(70,72)                1.76           estimate D2E/DX2                !
 ! A1    A(17,1,24)            109.0553         estimate D2E/DX2                !
 ! A2    A(17,1,27)            126.1226         estimate D2E/DX2                !
 ! A3    A(24,1,27)            124.735          estimate D2E/DX2                !
 ! A4    A(18,2,20)            109.0662         estimate D2E/DX2                !
 ! A5    A(18,2,30)            127.1695         estimate D2E/DX2                !
 ! A6    A(20,2,30)            123.6439         estimate D2E/DX2                !
 ! A7    A(4,3,15)             126.4189         estimate D2E/DX2                !
 ! A8    A(4,3,20)             106.6801         estimate D2E/DX2                !
 ! A9    A(15,3,20)            126.8981         estimate D2E/DX2                !
 ! A10   A(3,4,18)             106.9519         estimate D2E/DX2                !
 ! A11   A(3,4,29)             126.9254         estimate D2E/DX2                !
 ! A12   A(18,4,29)            126.1065         estimate D2E/DX2                !
 ! A13   A(16,5,22)            107.0482         estimate D2E/DX2                !
 ! A14   A(16,5,29)            127.883          estimate D2E/DX2                !
 ! A15   A(22,5,29)            124.9302         estimate D2E/DX2                !
 ! A16   A(7,6,22)             108.4867         estimate D2E/DX2                !
 ! A17   A(7,6,74)             126.2449         estimate D2E/DX2                !
 ! A18   A(22,6,74)            125.2535         estimate D2E/DX2                !
 ! A19   A(6,7,16)             109.5695         estimate D2E/DX2                !
 ! A20   A(6,7,27)             124.7529         estimate D2E/DX2                !
 ! A21   A(16,7,27)            125.5801         estimate D2E/DX2                !
 ! A22   A(9,8,19)             108.6806         estimate D2E/DX2                !
 ! A23   A(9,8,30)             125.9772         estimate D2E/DX2                !
 ! A24   A(19,8,30)            125.3305         estimate D2E/DX2                !
 ! A25   A(8,9,14)             125.8075         estimate D2E/DX2                !
 ! A26   A(8,9,25)             108.3094         estimate D2E/DX2                !
 ! A27   A(14,9,25)            125.882          estimate D2E/DX2                !
 ! A28   A(11,10,17)           107.0597         estimate D2E/DX2                !
 ! A29   A(11,10,28)           125.3994         estimate D2E/DX2                !
 ! A30   A(17,10,28)           127.3961         estimate D2E/DX2                !
 ! A31   A(10,11,13)           126.9069         estimate D2E/DX2                !
 ! A32   A(10,11,24)           106.583          estimate D2E/DX2                !
 ! A33   A(13,11,24)           126.496          estimate D2E/DX2                !
 ! A34   A(19,12,25)           107.2365         estimate D2E/DX2                !
 ! A35   A(19,12,28)           125.8427         estimate D2E/DX2                !
 ! A36   A(25,12,28)           126.9148         estimate D2E/DX2                !
 ! A37   A(5,16,7)             107.4696         estimate D2E/DX2                !
 ! A38   A(5,16,73)            123.9445         estimate D2E/DX2                !
 ! A39   A(7,16,73)            128.5815         estimate D2E/DX2                !
 ! A40   A(1,17,10)            107.9014         estimate D2E/DX2                !
 ! A41   A(1,17,73)            126.7522         estimate D2E/DX2                !
 ! A42   A(10,17,73)           125.339          estimate D2E/DX2                !
 ! A43   A(2,18,4)             108.7492         estimate D2E/DX2                !
 ! A44   A(2,18,73)            125.9907         estimate D2E/DX2                !
 ! A45   A(4,18,73)            125.2368         estimate D2E/DX2                !
 ! A46   A(8,19,12)            108.7595         estimate D2E/DX2                !
 ! A47   A(8,19,73)            125.4281         estimate D2E/DX2                !
 ! A48   A(12,19,73)           125.7918         estimate D2E/DX2                !
 ! A49   A(2,20,3)             108.3308         estimate D2E/DX2                !
 ! A50   A(2,20,21)            125.7984         estimate D2E/DX2                !
 ! A51   A(3,20,21)            125.8486         estimate D2E/DX2                !
 ! A52   A(5,22,6)             106.3192         estimate D2E/DX2                !
 ! A53   A(5,22,23)            126.9995         estimate D2E/DX2                !
 ! A54   A(6,22,23)            126.6659         estimate D2E/DX2                !
 ! A55   A(1,24,11)            108.4297         estimate D2E/DX2                !
 ! A56   A(1,24,49)            126.1059         estimate D2E/DX2                !
 ! A57   A(11,24,49)           125.4418         estimate D2E/DX2                !
 ! A58   A(9,25,12)            106.9521         estimate D2E/DX2                !
 ! A59   A(9,25,26)            126.7164         estimate D2E/DX2                !
 ! A60   A(12,25,26)           126.3314         estimate D2E/DX2                !
 ! A61   A(1,27,7)             112.5789         estimate D2E/DX2                !
 ! A62   A(1,27,68)            123.6939         estimate D2E/DX2                !
 ! A63   A(7,27,68)            123.5925         estimate D2E/DX2                !
 ! A64   A(10,28,12)           121.0613         estimate D2E/DX2                !
 ! A65   A(10,28,43)           117.8966         estimate D2E/DX2                !
 ! A66   A(12,28,43)           121.019          estimate D2E/DX2                !
 ! A67   A(4,29,5)             119.8866         estimate D2E/DX2                !
 ! A68   A(4,29,31)            121.6161         estimate D2E/DX2                !
 ! A69   A(5,29,31)            118.4662         estimate D2E/DX2                !
 ! A70   A(2,30,8)             120.6607         estimate D2E/DX2                !
 ! A71   A(2,30,37)            119.6272         estimate D2E/DX2                !
 ! A72   A(8,30,37)            119.6761         estimate D2E/DX2                !
 ! A73   A(29,31,32)           118.2756         estimate D2E/DX2                !
 ! A74   A(29,31,33)           120.8688         estimate D2E/DX2                !
 ! A75   A(32,31,33)           120.8532         estimate D2E/DX2                !
 ! A76   A(31,32,34)           119.6802         estimate D2E/DX2                !
 ! A77   A(31,32,56)           119.578          estimate D2E/DX2                !
 ! A78   A(34,32,56)           120.6985         estimate D2E/DX2                !
 ! A79   A(31,33,35)           119.3363         estimate D2E/DX2                !
 ! A80   A(31,33,52)           120.5917         estimate D2E/DX2                !
 ! A81   A(35,33,52)           120.0394         estimate D2E/DX2                !
 ! A82   A(32,34,36)           120.0294         estimate D2E/DX2                !
 ! A83   A(32,34,55)           119.6777         estimate D2E/DX2                !
 ! A84   A(36,34,55)           120.2905         estimate D2E/DX2                !
 ! A85   A(33,35,36)           119.591          estimate D2E/DX2                !
 ! A86   A(33,35,53)           120.264          estimate D2E/DX2                !
 ! A87   A(36,35,53)           120.1442         estimate D2E/DX2                !
 ! A88   A(34,36,35)           120.0926         estimate D2E/DX2                !
 ! A89   A(34,36,54)           119.8946         estimate D2E/DX2                !
 ! A90   A(35,36,54)           120.0128         estimate D2E/DX2                !
 ! A91   A(30,37,38)           120.0416         estimate D2E/DX2                !
 ! A92   A(30,37,39)           119.4384         estimate D2E/DX2                !
 ! A93   A(38,37,39)           120.5197         estimate D2E/DX2                !
 ! A94   A(37,38,40)           119.5634         estimate D2E/DX2                !
 ! A95   A(37,38,57)           120.4416         estimate D2E/DX2                !
 ! A96   A(40,38,57)           119.9593         estimate D2E/DX2                !
 ! A97   A(37,39,41)           119.7159         estimate D2E/DX2                !
 ! A98   A(37,39,61)           119.7439         estimate D2E/DX2                !
 ! A99   A(41,39,61)           120.5016         estimate D2E/DX2                !
 ! A100  A(38,40,42)           119.7049         estimate D2E/DX2                !
 ! A101  A(38,40,58)           120.2264         estimate D2E/DX2                !
 ! A102  A(42,40,58)           120.067          estimate D2E/DX2                !
 ! A103  A(39,41,42)           120.0512         estimate D2E/DX2                !
 ! A104  A(39,41,60)           119.7953         estimate D2E/DX2                !
 ! A105  A(42,41,60)           120.1523         estimate D2E/DX2                !
 ! A106  A(40,42,41)           120.0485         estimate D2E/DX2                !
 ! A107  A(40,42,59)           120.011          estimate D2E/DX2                !
 ! A108  A(41,42,59)           119.9405         estimate D2E/DX2                !
 ! A109  A(28,43,44)           118.5758         estimate D2E/DX2                !
 ! A110  A(28,43,45)           120.3529         estimate D2E/DX2                !
 ! A111  A(44,43,45)           121.0695         estimate D2E/DX2                !
 ! A112  A(43,44,46)           119.5162         estimate D2E/DX2                !
 ! A113  A(43,44,62)           119.7264         estimate D2E/DX2                !
 ! A114  A(46,44,62)           120.7135         estimate D2E/DX2                !
 ! A115  A(43,45,47)           119.3103         estimate D2E/DX2                !
 ! A116  A(43,45,66)           120.4772         estimate D2E/DX2                !
 ! A117  A(47,45,66)           120.177          estimate D2E/DX2                !
 ! A118  A(44,46,48)           119.9598         estimate D2E/DX2                !
 ! A119  A(44,46,63)           119.7248         estimate D2E/DX2                !
 ! A120  A(48,46,63)           120.3133         estimate D2E/DX2                !
 ! A121  A(45,47,48)           119.5924         estimate D2E/DX2                !
 ! A122  A(45,47,65)           120.1892         estimate D2E/DX2                !
 ! A123  A(48,47,65)           120.2172         estimate D2E/DX2                !
 ! A124  A(46,48,47)           120.1236         estimate D2E/DX2                !
 ! A125  A(46,48,64)           119.8981         estimate D2E/DX2                !
 ! A126  A(47,48,64)           119.9783         estimate D2E/DX2                !
 ! A127  A(24,49,69)           126.1853         estimate D2E/DX2                !
 ! A128  A(24,49,72)           122.1632         estimate D2E/DX2                !
 ! A129  A(69,49,72)           111.6514         estimate D2E/DX2                !
 ! A130  A(67,50,69)           124.0069         estimate D2E/DX2                !
 ! A131  A(67,50,70)           123.7561         estimate D2E/DX2                !
 ! A132  A(69,50,70)           112.2319         estimate D2E/DX2                !
 ! A133  A(49,69,50)           111.1797         estimate D2E/DX2                !
 ! A134  A(49,69,51)           124.6563         estimate D2E/DX2                !
 ! A135  A(50,69,51)           124.1489         estimate D2E/DX2                !
 ! A136  A(50,70,71)           125.0129         estimate D2E/DX2                !
 ! A137  A(50,70,72)           111.1056         estimate D2E/DX2                !
 ! A138  A(71,70,72)           123.8808         estimate D2E/DX2                !
 ! A139  A(49,72,70)            93.2304         estimate D2E/DX2                !
 ! A140  A(16,73,17)            89.4583         estimate D2E/DX2                !
 ! A141  A(16,73,18)            90.5412         estimate D2E/DX2                !
 ! A142  A(17,73,19)            89.3358         estimate D2E/DX2                !
 ! A143  A(18,73,19)            90.6644         estimate D2E/DX2                !
 ! A144  L(16,73,19,18,-1)     181.2057         estimate D2E/DX2                !
 ! A145  L(17,73,18,19,-1)     180.0002         estimate D2E/DX2                !
 ! A146  L(16,73,19,18,-2)     181.7963         estimate D2E/DX2                !
 ! A147  L(17,73,18,19,-2)     179.9908         estimate D2E/DX2                !
 ! D1    D(24,1,17,10)          -1.9514         estimate D2E/DX2                !
 ! D2    D(24,1,17,73)         177.0942         estimate D2E/DX2                !
 ! D3    D(27,1,17,10)        -178.6723         estimate D2E/DX2                !
 ! D4    D(27,1,17,73)           0.3733         estimate D2E/DX2                !
 ! D5    D(17,1,24,11)          -4.3422         estimate D2E/DX2                !
 ! D6    D(17,1,24,49)         177.3173         estimate D2E/DX2                !
 ! D7    D(27,1,24,11)         172.4349         estimate D2E/DX2                !
 ! D8    D(27,1,24,49)          -5.9056         estimate D2E/DX2                !
 ! D9    D(17,1,27,7)           28.1067         estimate D2E/DX2                !
 ! D10   D(17,1,27,68)        -155.984          estimate D2E/DX2                !
 ! D11   D(24,1,27,7)         -148.1212         estimate D2E/DX2                !
 ! D12   D(24,1,27,68)          27.7881         estimate D2E/DX2                !
 ! D13   D(20,2,18,4)            3.3291         estimate D2E/DX2                !
 ! D14   D(20,2,18,73)        -178.3594         estimate D2E/DX2                !
 ! D15   D(30,2,18,4)         -172.7667         estimate D2E/DX2                !
 ! D16   D(30,2,18,73)           5.5449         estimate D2E/DX2                !
 ! D17   D(18,2,20,3)           -5.006          estimate D2E/DX2                !
 ! D18   D(18,2,20,21)         176.6286         estimate D2E/DX2                !
 ! D19   D(30,2,20,3)          171.2571         estimate D2E/DX2                !
 ! D20   D(30,2,20,21)          -7.1082         estimate D2E/DX2                !
 ! D21   D(18,2,30,8)           16.2264         estimate D2E/DX2                !
 ! D22   D(18,2,30,37)        -165.9626         estimate D2E/DX2                !
 ! D23   D(20,2,30,8)         -159.3401         estimate D2E/DX2                !
 ! D24   D(20,2,30,37)          18.4709         estimate D2E/DX2                !
 ! D25   D(15,3,4,18)          177.0364         estimate D2E/DX2                !
 ! D26   D(15,3,4,29)           -1.5622         estimate D2E/DX2                !
 ! D27   D(20,3,4,18)           -2.3708         estimate D2E/DX2                !
 ! D28   D(20,3,4,29)          179.0307         estimate D2E/DX2                !
 ! D29   D(4,3,20,2)             4.2248         estimate D2E/DX2                !
 ! D30   D(4,3,20,21)         -177.4108         estimate D2E/DX2                !
 ! D31   D(15,3,20,2)         -175.1786         estimate D2E/DX2                !
 ! D32   D(15,3,20,21)           3.1857         estimate D2E/DX2                !
 ! D33   D(3,4,18,2)            -0.8147         estimate D2E/DX2                !
 ! D34   D(3,4,18,73)         -179.142          estimate D2E/DX2                !
 ! D35   D(29,4,18,2)          177.7986         estimate D2E/DX2                !
 ! D36   D(29,4,18,73)          -0.5287         estimate D2E/DX2                !
 ! D37   D(3,4,29,5)          -162.2306         estimate D2E/DX2                !
 ! D38   D(3,4,29,31)           15.7093         estimate D2E/DX2                !
 ! D39   D(18,4,29,5)           19.4288         estimate D2E/DX2                !
 ! D40   D(18,4,29,31)        -162.6313         estimate D2E/DX2                !
 ! D41   D(22,5,16,7)           -8.2544         estimate D2E/DX2                !
 ! D42   D(22,5,16,73)         171.0448         estimate D2E/DX2                !
 ! D43   D(29,5,16,7)          167.5918         estimate D2E/DX2                !
 ! D44   D(29,5,16,73)         -13.109          estimate D2E/DX2                !
 ! D45   D(16,5,22,6)           10.6407         estimate D2E/DX2                !
 ! D46   D(16,5,22,23)        -170.7186         estimate D2E/DX2                !
 ! D47   D(29,5,22,6)         -165.3607         estimate D2E/DX2                !
 ! D48   D(29,5,22,23)          13.28           estimate D2E/DX2                !
 ! D49   D(16,5,29,4)          -12.4209         estimate D2E/DX2                !
 ! D50   D(16,5,29,31)         169.5746         estimate D2E/DX2                !
 ! D51   D(22,5,29,4)          162.7336         estimate D2E/DX2                !
 ! D52   D(22,5,29,31)         -15.2708         estimate D2E/DX2                !
 ! D53   D(22,6,7,16)            4.3068         estimate D2E/DX2                !
 ! D54   D(22,6,7,27)         -172.2684         estimate D2E/DX2                !
 ! D55   D(74,6,7,16)         -177.0416         estimate D2E/DX2                !
 ! D56   D(74,6,7,27)            6.3832         estimate D2E/DX2                !
 ! D57   D(7,6,22,5)            -9.3778         estimate D2E/DX2                !
 ! D58   D(7,6,22,23)          171.9755         estimate D2E/DX2                !
 ! D59   D(74,6,22,5)          171.9539         estimate D2E/DX2                !
 ! D60   D(74,6,22,23)          -6.6928         estimate D2E/DX2                !
 ! D61   D(6,7,16,5)             2.4158         estimate D2E/DX2                !
 ! D62   D(6,7,16,73)         -176.8405         estimate D2E/DX2                !
 ! D63   D(27,7,16,5)          178.956          estimate D2E/DX2                !
 ! D64   D(27,7,16,73)          -0.3003         estimate D2E/DX2                !
 ! D65   D(6,7,27,1)           147.7204         estimate D2E/DX2                !
 ! D66   D(6,7,27,68)          -28.1938         estimate D2E/DX2                !
 ! D67   D(16,7,27,1)          -28.3111         estimate D2E/DX2                !
 ! D68   D(16,7,27,68)         155.7747         estimate D2E/DX2                !
 ! D69   D(19,8,9,14)         -177.719          estimate D2E/DX2                !
 ! D70   D(19,8,9,25)            2.6397         estimate D2E/DX2                !
 ! D71   D(30,8,9,14)            1.0875         estimate D2E/DX2                !
 ! D72   D(30,8,9,25)         -178.5537         estimate D2E/DX2                !
 ! D73   D(9,8,19,12)           -1.7994         estimate D2E/DX2                !
 ! D74   D(9,8,19,73)          179.7759         estimate D2E/DX2                !
 ! D75   D(30,8,19,12)         179.3845         estimate D2E/DX2                !
 ! D76   D(30,8,19,73)           0.9598         estimate D2E/DX2                !
 ! D77   D(9,8,30,2)           162.0714         estimate D2E/DX2                !
 ! D78   D(9,8,30,37)          -15.7386         estimate D2E/DX2                !
 ! D79   D(19,8,30,2)          -19.3145         estimate D2E/DX2                !
 ! D80   D(19,8,30,37)         162.8755         estimate D2E/DX2                !
 ! D81   D(8,9,25,12)           -2.2145         estimate D2E/DX2                !
 ! D82   D(8,9,25,26)          177.8857         estimate D2E/DX2                !
 ! D83   D(14,9,25,12)         178.1446         estimate D2E/DX2                !
 ! D84   D(14,9,25,26)          -1.7552         estimate D2E/DX2                !
 ! D85   D(17,10,11,13)        171.3446         estimate D2E/DX2                !
 ! D86   D(17,10,11,24)         -9.9595         estimate D2E/DX2                !
 ! D87   D(28,10,11,13)        -12.7678         estimate D2E/DX2                !
 ! D88   D(28,10,11,24)        165.9282         estimate D2E/DX2                !
 ! D89   D(11,10,17,1)           7.5101         estimate D2E/DX2                !
 ! D90   D(11,10,17,73)       -171.5525         estimate D2E/DX2                !
 ! D91   D(28,10,17,1)        -168.2703         estimate D2E/DX2                !
 ! D92   D(28,10,17,73)         12.6672         estimate D2E/DX2                !
 ! D93   D(11,10,28,12)       -164.2844         estimate D2E/DX2                !
 ! D94   D(11,10,28,43)         13.9856         estimate D2E/DX2                !
 ! D95   D(17,10,28,12)         10.7651         estimate D2E/DX2                !
 ! D96   D(17,10,28,43)       -170.9649         estimate D2E/DX2                !
 ! D97   D(10,11,24,1)           8.9463         estimate D2E/DX2                !
 ! D98   D(10,11,24,49)       -172.6994         estimate D2E/DX2                !
 ! D99   D(13,11,24,1)        -172.3508         estimate D2E/DX2                !
 ! D100  D(13,11,24,49)          6.0035         estimate D2E/DX2                !
 ! D101  D(25,12,19,8)           0.4867         estimate D2E/DX2                !
 ! D102  D(25,12,19,73)        178.9042         estimate D2E/DX2                !
 ! D103  D(28,12,19,8)        -178.6682         estimate D2E/DX2                !
 ! D104  D(28,12,19,73)         -0.2506         estimate D2E/DX2                !
 ! D105  D(19,12,25,9)           1.2009         estimate D2E/DX2                !
 ! D106  D(19,12,25,26)       -178.8988         estimate D2E/DX2                !
 ! D107  D(28,12,25,9)        -179.6559         estimate D2E/DX2                !
 ! D108  D(28,12,25,26)          0.2443         estimate D2E/DX2                !
 ! D109  D(19,12,28,10)        -17.0062         estimate D2E/DX2                !
 ! D110  D(19,12,28,43)        164.7779         estimate D2E/DX2                !
 ! D111  D(25,12,28,10)        164.0034         estimate D2E/DX2                !
 ! D112  D(25,12,28,43)        -14.2125         estimate D2E/DX2                !
 ! D113  D(5,16,73,17)        -156.8532         estimate D2E/DX2                !
 ! D114  D(5,16,73,18)          23.1376         estimate D2E/DX2                !
 ! D115  D(7,16,73,17)          22.2917         estimate D2E/DX2                !
 ! D116  D(7,16,73,18)        -157.7175         estimate D2E/DX2                !
 ! D117  D(1,17,73,16)         -22.0296         estimate D2E/DX2                !
 ! D118  D(1,17,73,19)         159.7665         estimate D2E/DX2                !
 ! D119  D(10,17,73,16)        156.8571         estimate D2E/DX2                !
 ! D120  D(10,17,73,19)        -21.3468         estimate D2E/DX2                !
 ! D121  D(2,18,73,16)         164.6033         estimate D2E/DX2                !
 ! D122  D(2,18,73,19)         -17.1929         estimate D2E/DX2                !
 ! D123  D(4,18,73,16)         -17.3543         estimate D2E/DX2                !
 ! D124  D(4,18,73,19)         160.8494         estimate D2E/DX2                !
 ! D125  D(8,19,73,17)        -165.9026         estimate D2E/DX2                !
 ! D126  D(8,19,73,18)          14.1066         estimate D2E/DX2                !
 ! D127  D(12,19,73,17)         15.9364         estimate D2E/DX2                !
 ! D128  D(12,19,73,18)       -164.0544         estimate D2E/DX2                !
 ! D129  D(1,24,49,69)         -29.9133         estimate D2E/DX2                !
 ! D130  D(1,24,49,72)         149.9209         estimate D2E/DX2                !
 ! D131  D(11,24,49,69)        152.0193         estimate D2E/DX2                !
 ! D132  D(11,24,49,72)        -28.1465         estimate D2E/DX2                !
 ! D133  D(10,28,43,44)       -105.202          estimate D2E/DX2                !
 ! D134  D(10,28,43,45)         74.3081         estimate D2E/DX2                !
 ! D135  D(12,28,43,44)         73.0688         estimate D2E/DX2                !
 ! D136  D(12,28,43,45)       -107.4211         estimate D2E/DX2                !
 ! D137  D(4,29,31,32)         -71.2606         estimate D2E/DX2                !
 ! D138  D(4,29,31,33)         109.2918         estimate D2E/DX2                !
 ! D139  D(5,29,31,32)         106.7076         estimate D2E/DX2                !
 ! D140  D(5,29,31,33)         -72.74           estimate D2E/DX2                !
 ! D141  D(2,30,37,38)          72.6851         estimate D2E/DX2                !
 ! D142  D(2,30,37,39)        -107.5345         estimate D2E/DX2                !
 ! D143  D(8,30,37,38)        -109.4821         estimate D2E/DX2                !
 ! D144  D(8,30,37,39)          70.2983         estimate D2E/DX2                !
 ! D145  D(29,31,32,34)       -175.624          estimate D2E/DX2                !
 ! D146  D(29,31,32,56)          2.0001         estimate D2E/DX2                !
 ! D147  D(33,31,32,34)          3.8236         estimate D2E/DX2                !
 ! D148  D(33,31,32,56)       -178.5523         estimate D2E/DX2                !
 ! D149  D(29,31,33,35)       -178.3726         estimate D2E/DX2                !
 ! D150  D(29,31,33,52)         -0.4511         estimate D2E/DX2                !
 ! D151  D(32,31,33,35)          2.1941         estimate D2E/DX2                !
 ! D152  D(32,31,33,52)       -179.8843         estimate D2E/DX2                !
 ! D153  D(31,32,34,36)         -6.2607         estimate D2E/DX2                !
 ! D154  D(31,32,34,55)        173.1803         estimate D2E/DX2                !
 ! D155  D(56,32,34,36)        176.1424         estimate D2E/DX2                !
 ! D156  D(56,32,34,55)         -4.4166         estimate D2E/DX2                !
 ! D157  D(31,33,35,36)         -5.7384         estimate D2E/DX2                !
 ! D158  D(31,33,35,53)        173.9232         estimate D2E/DX2                !
 ! D159  D(52,33,35,36)        176.3283         estimate D2E/DX2                !
 ! D160  D(52,33,35,53)         -4.0101         estimate D2E/DX2                !
 ! D161  D(32,34,36,35)          2.6948         estimate D2E/DX2                !
 ! D162  D(32,34,36,54)       -177.2626         estimate D2E/DX2                !
 ! D163  D(55,34,36,35)       -176.7428         estimate D2E/DX2                !
 ! D164  D(55,34,36,54)          3.2999         estimate D2E/DX2                !
 ! D165  D(33,35,36,34)          3.3319         estimate D2E/DX2                !
 ! D166  D(33,35,36,54)       -176.7108         estimate D2E/DX2                !
 ! D167  D(53,35,36,34)       -176.3301         estimate D2E/DX2                !
 ! D168  D(53,35,36,54)          3.6272         estimate D2E/DX2                !
 ! D169  D(30,37,38,40)        177.2202         estimate D2E/DX2                !
 ! D170  D(30,37,38,57)         -0.6079         estimate D2E/DX2                !
 ! D171  D(39,37,38,40)         -2.5578         estimate D2E/DX2                !
 ! D172  D(39,37,38,57)        179.6141         estimate D2E/DX2                !
 ! D173  D(30,37,39,41)        176.8837         estimate D2E/DX2                !
 ! D174  D(30,37,39,61)         -0.8668         estimate D2E/DX2                !
 ! D175  D(38,37,39,41)         -3.3369         estimate D2E/DX2                !
 ! D176  D(38,37,39,61)        178.9126         estimate D2E/DX2                !
 ! D177  D(37,38,40,42)          5.701          estimate D2E/DX2                !
 ! D178  D(37,38,40,58)       -173.8129         estimate D2E/DX2                !
 ! D179  D(57,38,40,42)       -176.4602         estimate D2E/DX2                !
 ! D180  D(57,38,40,58)          4.0258         estimate D2E/DX2                !
 ! D181  D(37,39,41,42)          6.0751         estimate D2E/DX2                !
 ! D182  D(37,39,41,60)       -173.528          estimate D2E/DX2                !
 ! D183  D(61,39,41,42)       -176.1918         estimate D2E/DX2                !
 ! D184  D(61,39,41,60)          4.2052         estimate D2E/DX2                !
 ! D185  D(38,40,42,41)         -2.9892         estimate D2E/DX2                !
 ! D186  D(38,40,42,59)        176.9756         estimate D2E/DX2                !
 ! D187  D(58,40,42,41)        176.5255         estimate D2E/DX2                !
 ! D188  D(58,40,42,59)         -3.5097         estimate D2E/DX2                !
 ! D189  D(39,41,42,40)         -2.919          estimate D2E/DX2                !
 ! D190  D(39,41,42,59)        177.1162         estimate D2E/DX2                !
 ! D191  D(60,41,42,40)        176.6826         estimate D2E/DX2                !
 ! D192  D(60,41,42,59)         -3.2822         estimate D2E/DX2                !
 ! D193  D(28,43,44,46)        176.0533         estimate D2E/DX2                !
 ! D194  D(28,43,44,62)         -1.5513         estimate D2E/DX2                !
 ! D195  D(45,43,44,46)         -3.4532         estimate D2E/DX2                !
 ! D196  D(45,43,44,62)        178.9422         estimate D2E/DX2                !
 ! D197  D(28,43,45,47)        177.8281         estimate D2E/DX2                !
 ! D198  D(28,43,45,66)         -0.0088         estimate D2E/DX2                !
 ! D199  D(44,43,45,47)         -2.6742         estimate D2E/DX2                !
 ! D200  D(44,43,45,66)        179.4889         estimate D2E/DX2                !
 ! D201  D(43,44,46,48)          6.2307         estimate D2E/DX2                !
 ! D202  D(43,44,46,63)       -173.2415         estimate D2E/DX2                !
 ! D203  D(62,44,46,48)       -176.1889         estimate D2E/DX2                !
 ! D204  D(62,44,46,63)          4.3389         estimate D2E/DX2                !
 ! D205  D(43,45,47,48)          5.9741         estimate D2E/DX2                !
 ! D206  D(43,45,47,65)       -173.6279         estimate D2E/DX2                !
 ! D207  D(66,45,47,48)       -176.1824         estimate D2E/DX2                !
 ! D208  D(66,45,47,65)          4.2156         estimate D2E/DX2                !
 ! D209  D(44,46,48,47)         -2.9169         estimate D2E/DX2                !
 ! D210  D(44,46,48,64)        177.0712         estimate D2E/DX2                !
 ! D211  D(63,46,48,47)        176.5523         estimate D2E/DX2                !
 ! D212  D(63,46,48,64)         -3.4597         estimate D2E/DX2                !
 ! D213  D(45,47,48,46)         -3.2244         estimate D2E/DX2                !
 ! D214  D(45,47,48,64)        176.7875         estimate D2E/DX2                !
 ! D215  D(65,47,48,46)        176.3774         estimate D2E/DX2                !
 ! D216  D(65,47,48,64)         -3.6107         estimate D2E/DX2                !
 ! D217  D(24,49,69,50)       -174.1591         estimate D2E/DX2                !
 ! D218  D(24,49,69,51)          4.4724         estimate D2E/DX2                !
 ! D219  D(72,49,69,50)          5.9919         estimate D2E/DX2                !
 ! D220  D(72,49,69,51)       -175.3766         estimate D2E/DX2                !
 ! D221  D(24,49,72,70)        172.7738         estimate D2E/DX2                !
 ! D222  D(69,49,72,70)         -7.3701         estimate D2E/DX2                !
 ! D223  D(67,50,69,49)        178.1417         estimate D2E/DX2                !
 ! D224  D(67,50,69,51)         -0.4981         estimate D2E/DX2                !
 ! D225  D(70,50,69,49)         -1.0656         estimate D2E/DX2                !
 ! D226  D(70,50,69,51)       -179.7054         estimate D2E/DX2                !
 ! D227  D(67,50,70,71)         -3.8685         estimate D2E/DX2                !
 ! D228  D(67,50,70,72)        176.4232         estimate D2E/DX2                !
 ! D229  D(69,50,70,71)        175.3411         estimate D2E/DX2                !
 ! D230  D(69,50,70,72)         -4.3672         estimate D2E/DX2                !
 ! D231  D(50,70,72,49)          6.6678         estimate D2E/DX2                !
 ! D232  D(71,70,72,49)       -173.0444         estimate D2E/DX2                !
 --------------------------------------------------------------------------------
 Trust Radius=3.00D-01 FncErr=1.00D-07 GrdErr=1.00D-06 EigMax=2.50D+02 EigMin=1.00D-04
 Number of steps in this run=    444 maximum allowed number of steps=    444.
 GradGradGradGradGradGradGradGradGradGradGradGradGradGradGradGradGradGrad

 Leave Link  103 at Wed Oct 20 15:41:09 2021, MaxMem= 13421772800 cpu:               0.6 elap:               0.0
 (Enter /local/apl/lx/g16c01/g16/l202.exe)
 Stoichiometry    C42H10F15N4OPdS(1-)
 Framework group  C1[X(C42H10F15N4OPdS)]
 Deg. of freedom   216
 Full point group                 C1      NOp   1
 Largest Abelian subgroup         C1      NOp   1
 Largest concise Abelian subgroup C1      NOp   1
                         Standard orientation:                         
 ---------------------------------------------------------------------
 Center     Atomic      Atomic             Coordinates (Angstroms)
 Number     Number       Type             X           Y           Z
 ---------------------------------------------------------------------
      1          6           0       -1.961532   -2.278038   -1.329169
      2          6           0        2.216255    1.665233   -0.213291
      3          6           0        4.283826    0.607937    0.169811
      4          6           0        3.149763   -0.397964    0.037447
      5          6           0        2.235823   -2.538074   -0.340859
      6          6           0        1.261308   -4.241622   -1.380303
      7          6           0        0.389303   -3.162478   -1.423793
      8          6           0       -0.040913    2.553269    0.001802
      9          6           0       -1.057696    3.663755    0.355805
     10          6           0       -2.857777   -0.619993   -0.126604
     11          6           0       -3.858145   -1.554516   -0.351340
     12          6           0       -2.087742    1.588536    0.329667
     13          1           0       -4.854198   -1.533397    0.034334
     14          1           0       -0.845172    4.710111    0.417871
     15          1           0        5.305180    0.386943    0.396508
     16          7           0        0.922088   -2.137089   -0.783976
     17          7           0       -1.650897   -1.159781   -0.667387
     18          7           0        1.916991    0.373717   -0.209592
     19          7           0       -0.687002    1.368815   -0.026916
     20          6           0        3.745118    1.830304   -0.041498
     21          1           0        4.279202    2.754446   -0.058449
     22          6           0        2.352364   -3.895149   -0.591869
     23          1           0        3.135179   -4.543684   -0.266470
     24          6           0       -3.320746   -2.514447   -1.204698
     25          6           0       -2.261007    3.082975    0.581393
     26          1           0       -3.162242    3.574768    0.877548
     27          6           0       -0.988686   -3.194313   -2.037755
     28          6           0       -3.041116    0.629171    0.432261
     29          6           0        3.238513   -1.741131    0.153261
     30          6           0        1.321680    2.740674   -0.272049
     31          6           0        4.452091   -2.408804    0.781701
     32          6           0        5.642549   -2.401196    0.077021
     33          6           0        4.363456   -3.028264    2.041413
     34          6           0        6.748264   -3.082757    0.582677
     35          6           0        5.508648   -3.603138    2.605116
     36          6           0        6.692934   -3.660541    1.858742
     37          6           0        1.843854    4.140909   -0.588947
     38          6           0        2.259462    4.458396   -1.893714
     39          6           0        1.898888    5.094000    0.420742
     40          6           0        2.681332    5.761456   -2.186779
     41          6           0        2.436018    6.355821    0.153524
     42          6           0        2.799102    6.701196   -1.155294
     43          6           0       -4.358664    0.908018    1.129992
     44          6           0       -5.289217    1.711039    0.491878
     45          6           0       -4.624993    0.352235    2.389369
     46          6           0       -6.537823    1.912889    1.076735
     47          6           0       -5.826990    0.660297    3.032962
     48          6           0       -6.798395    1.414019    2.360845
     49          6           0       -4.094980   -3.649927   -1.852374
     50          6           0       -4.897172   -5.270725   -3.439576
     51          1           0       -2.926320   -4.041115   -3.628217
     52          9           0        3.196077   -3.034579    2.724866
     53          9           0        5.475288   -4.093913    3.863940
     54          9           0        7.781714   -4.271180    2.367578
     55          9           0        7.863882   -3.192294   -0.165265
     56          9           0        5.706319   -1.774157   -1.115856
     57          9           0        2.212528    3.527225   -2.873506
     58          9           0        2.964395    6.114692   -3.460064
     59          9           0        3.262837    7.939462   -1.420631
     60          9           0        2.611089    7.236289    1.159698
     61          9           0        1.475573    4.779081    1.661921
     62          9           0       -4.996058    2.249473   -0.710529
     63          9           0       -7.493508    2.578822    0.398809
     64          9           0       -7.985571    1.660558    2.949194
     65          9           0       -6.047150    0.240692    4.297995
     66          9           0       -3.711407   -0.438945    2.997330
     67          1           0       -4.883765   -5.838073   -4.345148
     68          8           0       -1.312922   -3.961012   -2.983972
     69          6           0       -3.796628   -4.254169   -3.036046
     70          6           0       -5.893954   -5.345575   -2.514185
     71          1           0       -6.782669   -5.923689   -2.618479
     72         16           0       -5.530820   -4.349169   -1.109533
     73         46           0        0.145749   -0.387533   -0.437012
     74          1           0        1.116287   -5.191522   -1.851002
 ---------------------------------------------------------------------
 Rotational constants (GHZ):           0.0342785           0.0251471           0.0176745
 Leave Link  202 at Wed Oct 20 15:41:09 2021, MaxMem= 13421772800 cpu:               0.1 elap:               0.0
 (Enter /local/apl/lx/g16c01/g16/l301.exe)
 General basis read from cards:  (5D, 7F)
 Centers:      73
 LanL2DZ
 ****
 Centers:      13     14     15     21     23     26     51     67     71     74
 Centers:       1      2      3      4      5      6      7      8      9     10
 Centers:      11     12     20     22     24     25     27     28     29     30
 Centers:      31     32     33     34     35     36     37     38     39     40
 Centers:      41     42     43     44     45     46     47     48     49     50
 Centers:      69     70     16     17     18     19     68     72     52     53
 Centers:      54     55     56     57     58     59     60     61     62     63
 Centers:      64     65     66
 6-31+g(d,p)
 ****
 ======================================================================================================
                                       Pseudopotential Parameters
 ======================================================================================================
  Center     Atomic      Valence      Angular      Power
  Number     Number     Electrons     Momentum     of R      Exponent        Coefficient   SO-Coeffient
 ======================================================================================================
    1          6
                                   No pseudopotential on this center.
    2          6
                                   No pseudopotential on this center.
    3          6
                                   No pseudopotential on this center.
    4          6
                                   No pseudopotential on this center.
    5          6
                                   No pseudopotential on this center.
    6          6
                                   No pseudopotential on this center.
    7          6
                                   No pseudopotential on this center.
    8          6
                                   No pseudopotential on this center.
    9          6
                                   No pseudopotential on this center.
   10          6
                                   No pseudopotential on this center.
   11          6
                                   No pseudopotential on this center.
   12          6
                                   No pseudopotential on this center.
   13          1
                                   No pseudopotential on this center.
   14          1
                                   No pseudopotential on this center.
   15          1
                                   No pseudopotential on this center.
   16          7
                                   No pseudopotential on this center.
   17          7
                                   No pseudopotential on this center.
   18          7
                                   No pseudopotential on this center.
   19          7
                                   No pseudopotential on this center.
   20          6
                                   No pseudopotential on this center.
   21          1
                                   No pseudopotential on this center.
   22          6
                                   No pseudopotential on this center.
   23          1
                                   No pseudopotential on this center.
   24          6
                                   No pseudopotential on this center.
   25          6
                                   No pseudopotential on this center.
   26          1
                                   No pseudopotential on this center.
   27          6
                                   No pseudopotential on this center.
   28          6
                                   No pseudopotential on this center.
   29          6
                                   No pseudopotential on this center.
   30          6
                                   No pseudopotential on this center.
   31          6
                                   No pseudopotential on this center.
   32          6
                                   No pseudopotential on this center.
   33          6
                                   No pseudopotential on this center.
   34          6
                                   No pseudopotential on this center.
   35          6
                                   No pseudopotential on this center.
   36          6
                                   No pseudopotential on this center.
   37          6
                                   No pseudopotential on this center.
   38          6
                                   No pseudopotential on this center.
   39          6
                                   No pseudopotential on this center.
   40          6
                                   No pseudopotential on this center.
   41          6
                                   No pseudopotential on this center.
   42          6
                                   No pseudopotential on this center.
   43          6
                                   No pseudopotential on this center.
   44          6
                                   No pseudopotential on this center.
   45          6
                                   No pseudopotential on this center.
   46          6
                                   No pseudopotential on this center.
   47          6
                                   No pseudopotential on this center.
   48          6
                                   No pseudopotential on this center.
   49          6
                                   No pseudopotential on this center.
   50          6
                                   No pseudopotential on this center.
   51          1
                                   No pseudopotential on this center.
   52          9
                                   No pseudopotential on this center.
   53          9
                                   No pseudopotential on this center.
   54          9
                                   No pseudopotential on this center.
   55          9
                                   No pseudopotential on this center.
   56          9
                                   No pseudopotential on this center.
   57          9
                                   No pseudopotential on this center.
   58          9
                                   No pseudopotential on this center.
   59          9
                                   No pseudopotential on this center.
   60          9
                                   No pseudopotential on this center.
   61          9
                                   No pseudopotential on this center.
   62          9
                                   No pseudopotential on this center.
   63          9
                                   No pseudopotential on this center.
   64          9
                                   No pseudopotential on this center.
   65          9
                                   No pseudopotential on this center.
   66          9
                                   No pseudopotential on this center.
   67          1
                                   No pseudopotential on this center.
   68          8
                                   No pseudopotential on this center.
   69          6
                                   No pseudopotential on this center.
   70          6
                                   No pseudopotential on this center.
   71          1
                                   No pseudopotential on this center.
   72         16
                                   No pseudopotential on this center.
   73         46           18
                                      F and up 
                                                     0      598.3336444       -0.05631770    0.00000000
                                                     1      162.4298290      -20.12880360    0.00000000
                                                     2       51.5714771     -105.81979230    0.00000000
                                                     2       16.4888260      -42.57333450    0.00000000
                                                     2        5.8287656       -3.61650860    0.00000000
                                      S - F
                                                     0       73.3806304        3.00036510    0.00000000
                                                     1       14.7550438       32.43500930    0.00000000
                                                     2       17.8350204      459.08303830    0.00000000
                                                     2       12.7111477     -868.06290290    0.00000000
                                                     2        9.3292063      514.47260980    0.00000000
                                      P - F
                                                     0       55.6689877        4.95930990    0.00000000
                                                     1       64.2337771       21.17110290    0.00000000
                                                     2       17.6254952      605.05600920    0.00000000
                                                     2       11.9058155     -726.96418460    0.00000000
                                                     2        8.5100832      396.32748830    0.00000000
                                      D - F
                                                     0       49.9994728        3.05087450    0.00000000
                                                     1       39.7477547       22.25065800    0.00000000
                                                     2       11.4321366      674.83576980    0.00000000
                                                     2        9.1790080    -1040.85540480    0.00000000
                                                     2        7.5624429      505.93751470    0.00000000
   74          1
                                   No pseudopotential on this center.
 ======================================================================================================
 Ernie: Thresh=  0.10000D-02 Tol=  0.10000D-05 Strict=F.
 Ernie:  1 primitive shells out of 830 were deleted.
 There are  1275 symmetry adapted cartesian basis functions of A   symmetry.
 There are  1210 symmetry adapted basis functions of A   symmetry.
  1210 basis functions,  2159 primitive gaussians,  1275 cartesian basis functions
   234 alpha electrons      234 beta electrons
       nuclear repulsion energy     10142.4276690510 Hartrees.
 IExCor=  402 DFT=T Ex+Corr=B3LYP ExCW=0 ScaHFX=  0.200000
 ScaDFX=  0.800000  0.720000  1.000000  0.810000 ScalE2=  1.000000  1.000000
 IRadAn=      5 IRanWt=     -1 IRanGd=            0 ICorTp=0 IEmpDi=  4
 NAtoms=   74 NActive=   74 NUniq=   74 SFac= 1.00D+00 NAtFMM=   60 NAOKFM=T Big=T
 Integral buffers will be    131072 words long.
 Raffenetti 2 integral format.
 Two-electron integral symmetry is turned on.
 Leave Link  301 at Wed Oct 20 15:41:09 2021, MaxMem= 13421772800 cpu:               2.0 elap:               0.1
 (Enter /local/apl/lx/g16c01/g16/l302.exe)
 NPDir=0 NMtPBC=     1 NCelOv=     1 NCel=       1 NClECP=     1 NCelD=      1
         NCelK=      1 NCelE2=     1 NClLst=     1 CellRange=     0.0.
 One-electron integrals computed using PRISM.
 One-electron integral symmetry used in STVInt
   1 Symmetry operations used in ECPInt.
 ECPInt:  NShTT=   62835 NPrTT=  345227 LenC2=   43560 LenP2D=  125794.
 LDataN:  DoStor=T MaxTD1= 5 Len=  102
 NBasis=  1210 RedAO= T EigKep=  1.00D-06  NBF=  1210
 NBsUse=  1195 1.00D-06 EigRej=  6.41D-07 NBFU=  1195
 Precomputing XC quadrature grid using
 IXCGrd= 4 IRadAn=           5 IRanWt=          -1 IRanGd=           0 AccXCQ= 0.00D+00.
 Defaulting to unpruned grid for atomic number  46.
 Generated NRdTot=       0 NPtTot=           0 NUsed=           0 NTot=          32
 NSgBfM=  1226  1226  1226  1226  1226 MxSgAt=    74 MxSgA2=    74.
 Leave Link  302 at Wed Oct 20 15:41:12 2021, MaxMem= 13421772800 cpu:              45.0 elap:               2.8
 (Enter /local/apl/lx/g16c01/g16/l303.exe)
 DipDrv:  MaxL=1.
 Leave Link  303 at Wed Oct 20 15:41:13 2021, MaxMem= 13421772800 cpu:               5.0 elap:               0.4
 (Enter /local/apl/lx/g16c01/g16/l401.exe)
 ExpMin= 2.62D-02 ExpMax= 2.19D+04 ExpMxC= 3.30D+03 IAcc=3 IRadAn=         5 AccDes= 0.00D+00
 Harris functional with IExCor=  402 and IRadAn=       5 diagonalized for initial guess.
 HarFok:  IExCor=  402 AccDes= 0.00D+00 IRadAn=         5 IDoV= 1 UseB2=F ITyADJ=14
 ICtDFT=  3500011 ScaDFX=  1.000000  1.000000  1.000000  1.000000
 Defaulting to unpruned grid for atomic number  46.
 FoFCou: FMM=F IPFlag=           0 FMFlag=      100000 FMFlg1=        2001
         NFxFlg=           0 DoJE=T BraDBF=F KetDBF=T FulRan=T
         wScrn=  0.000000 ICntrl=       500 IOpCl=  0 I1Cent=   200000004 NGrid=           0
         NMat0=    1 NMatS0=      1 NMatT0=    0 NMatD0=    1 NMtDS0=    0 NMtDT0=    0
 Petite list used in FoFCou.
 Harris En= -3923.45450736136    
 JPrj=0 DoOrth=F DoCkMO=F.
 Leave Link  401 at Wed Oct 20 15:41:20 2021, MaxMem= 13421772800 cpu:             106.2 elap:               6.7
 (Enter /local/apl/lx/g16c01/g16/l502.exe)
 Integral symmetry usage will be decided dynamically.
 Closed shell SCF:
 Using DIIS extrapolation, IDIIS=  1040.
 NGot= 13421772800 LenX= 13418487774 LenY= 13416860874
 Requested convergence on RMS density matrix=1.00D-08 within1000 cycles.
 Requested convergence on MAX density matrix=1.00D-06.
 Requested convergence on             energy=1.00D-06.
 No special actions if energy rises.
 Fock matrices will be formed incrementally for  20 cycles.

 Cycle   1  Pass 1  IDiag  1:
 FoFJK:  IHMeth= 1 ICntrl=       0 DoSepK=F KAlg= 0 I1Cent=           0 FoldK=F
 IRaf= 760000000 NMat=       1 IRICut=       1 DoRegI=T DoRafI=F ISym2E= 0 IDoP0=0 IntGTp=1.
 FoFCou: FMM=T IPFlag=           0 FMFlag=      100000 FMFlg1=        2001
         NFxFlg=           0 DoJE=F BraDBF=F KetDBF=F FulRan=T
         wScrn=  0.000000 ICntrl=         0 IOpCl=  0 I1Cent=           0 NGrid=           0
         NMat0=    1 NMatS0=      1 NMatT0=    0 NMatD0=    1 NMtDS0=    0 NMtDT0=    0
 Symmetry not used in FoFCou.
 FMM levels:  10  Number of levels for PrismC:   9
 Defaulting to unpruned grid for atomic number  46.
 Defaulting to unpruned grid for atomic number  46.
 Defaulting to unpruned grid for atomic number  46.
 Defaulting to unpruned grid for atomic number  46.
 Defaulting to unpruned grid for atomic number  46.
 Defaulting to unpruned grid for atomic number  46.
 Defaulting to unpruned grid for atomic number  46.
 Defaulting to unpruned grid for atomic number  46.
 Defaulting to unpruned grid for atomic number  46.
 Defaulting to unpruned grid for atomic number  46.
 Defaulting to unpruned grid for atomic number  46.
 Defaulting to unpruned grid for atomic number  46.
 Defaulting to unpruned grid for atomic number  46.
 Defaulting to unpruned grid for atomic number  46.
 Defaulting to unpruned grid for atomic number  46.
 Defaulting to unpruned grid for atomic number  46.
 E= -3912.30582515517    
 DIIS: error= 9.75D-02 at cycle   1 NSaved=   1.
 NSaved= 1 IEnMin= 1 EnMin= -3912.30582515517     IErMin= 1 ErrMin= 9.75D-02
 ErrMax= 9.75D-02  0.00D+00 EMaxC= 1.00D-01 BMatC= 7.94D+00 BMatP= 7.94D+00
 IDIUse=3 WtCom= 2.47D-02 WtEn= 9.75D-01
 Coeff-Com:  0.100D+01
 Coeff-En:   0.100D+01
 Coeff:      0.100D+01
 Gap=     1.577 Goal=   None    Shift=    0.000
 GapD=    1.577 DampG=2.000 DampE=0.250 DampFc=0.5000 IDamp=-1.
 Damping current iteration by 5.00D-01
 RMSDP=1.05D+01 MaxDP=1.26D+03              OVMax= 9.63D-01

 Cycle   2  Pass 1  IDiag  1:
 RMSU=  5.19D+00    CP:  3.00D+00
 E= -3893.96760825960     Delta-E=       18.338216895570 Rises=F Damp=T
 DIIS: error= 6.76D-02 at cycle   2 NSaved=   2.
 NSaved= 2 IEnMin= 1 EnMin= -3912.30582515517     IErMin= 2 ErrMin= 6.76D-02
 ErrMax= 6.76D-02  0.00D+00 EMaxC= 1.00D-01 BMatC= 9.93D+00 BMatP= 7.94D+00
 IDIUse=2 WtCom= 0.00D+00 WtEn= 1.00D+00
 Coeff-En:   0.723D+00 0.277D+00
 Coeff:      0.723D+00 0.277D+00
 Gap=    -0.393 Goal=   None    Shift=    0.000
 RMSDP=2.71D+00 MaxDP=3.09D+02 DE= 1.83D+01 OVMax= 9.76D-01

 Cycle   3  Pass 1  IDiag  1:
 RMSU=  9.90D-01    CP:  3.00D+00  5.13D-01
 E= -3892.05804579204     Delta-E=        1.909562467559 Rises=F Damp=F
 DIIS: error= 6.72D-02 at cycle   3 NSaved=   3.
 NSaved= 3 IEnMin= 1 EnMin= -3912.30582515517     IErMin= 3 ErrMin= 6.72D-02
 ErrMax= 6.72D-02  0.00D+00 EMaxC= 1.00D-01 BMatC= 1.77D+01 BMatP= 7.94D+00
 IDIUse=2 WtCom= 0.00D+00 WtEn= 1.00D+00
 EnCoef did     1 forward-backward iterations
 Coeff-En:   0.604D+00 0.174D+00 0.222D+00
 Coeff:      0.604D+00 0.174D+00 0.222D+00
 Gap=     0.648 Goal=   None    Shift=    0.000
 RMSDP=1.83D+00 MaxDP=2.64D+02 DE= 1.91D+00 OVMax= 9.40D-01

 Cycle   4  Pass 1  IDiag  1:
 RMSU=  3.38D-01    CP:  3.00D+00  1.91D-01  3.41D-01
 E= -3858.73148008662     Delta-E=       33.326565705420 Rises=F Damp=F
 DIIS: error= 6.78D-02 at cycle   4 NSaved=   4.
 NSaved= 4 IEnMin= 1 EnMin= -3912.30582515517     IErMin= 3 ErrMin= 6.72D-02
 ErrMax= 6.78D-02  0.00D+00 EMaxC= 1.00D-01 BMatC= 2.53D+01 BMatP= 7.94D+00
 IDIUse=2 WtCom= 0.00D+00 WtEn= 1.00D+00
 EnCoef did     3 forward-backward iterations
 Coeff-En:   0.541D+00 0.000D+00 0.284D+00 0.175D+00
 Coeff:      0.541D+00 0.000D+00 0.284D+00 0.175D+00
 Gap=     0.026 Goal=   None    Shift=    0.000
 RMSDP=9.63D-01 MaxDP=1.08D+02 DE= 3.33D+01 OVMax= 9.86D-01

 Cycle   5  Pass 1  IDiag  1:
[...]
 Alpha virt. eigenvalues --    0.48992   0.49134   0.49523   0.49894   0.50027
 Alpha virt. eigenvalues --    0.50236   0.50478   0.50567   0.50759   0.51264
 Alpha virt. eigenvalues --    0.51353   0.51455   0.51733   0.52018   0.52199
 Alpha virt. eigenvalues --    0.52744   0.52812   0.52910   0.53428   0.53619
 Alpha virt. eigenvalues --    0.53806   0.53957   0.54288   0.54495   0.54925
 Alpha virt. eigenvalues --    0.54958   0.55511   0.55793   0.56255   0.56565
 Alpha virt. eigenvalues --    0.56916   0.57204   0.57494   0.57900   0.58066
 Alpha virt. eigenvalues --    0.58099   0.58320   0.58409   0.58850   0.59088
 Alpha virt. eigenvalues --    0.59292   0.59660   0.60553   0.60669   0.60771
 Alpha virt. eigenvalues --    0.60830   0.61135   0.61250   0.61928   0.62282
 Alpha virt. eigenvalues --    0.62634   0.63016   0.63700   0.63962   0.64190
 Alpha virt. eigenvalues --    0.64319   0.64509   0.65036   0.65423   0.65658
 Alpha virt. eigenvalues --    0.66043   0.67031   0.67085   0.67942   0.68178
 Alpha virt. eigenvalues --    0.68221   0.68426   0.68619   0.69055   0.69716
 Alpha virt. eigenvalues --    0.71001   0.71821   0.72660   0.73008   0.73171
 Alpha virt. eigenvalues --    0.73706   0.74185   0.74671   0.75228   0.75284
 Alpha virt. eigenvalues --    0.76102   0.76394   0.76828   0.76891   0.77238
 Alpha virt. eigenvalues --    0.77429   0.77877   0.78207   0.78374   0.78988
 Alpha virt. eigenvalues --    0.79094   0.79278   0.79724   0.79849   0.80000
 Alpha virt. eigenvalues --    0.80856   0.81196   0.81398   0.81668   0.81823
 Alpha virt. eigenvalues --    0.83101   0.83633   0.84007   0.84484   0.84987
 Alpha virt. eigenvalues --    0.85132   0.85212   0.85520   0.85684   0.85987
 Alpha virt. eigenvalues --    0.86068   0.86830   0.86889   0.87030   0.87691
 Alpha virt. eigenvalues --    0.88409   0.88474   0.88765   0.89204   0.89830
 Alpha virt. eigenvalues --    0.90089   0.90225   0.90801   0.90993   0.91148
 Alpha virt. eigenvalues --    0.91499   0.91623   0.91761   0.92023   0.92619
 Alpha virt. eigenvalues --    0.92772   0.93375   0.93574   0.93732   0.94232
 Alpha virt. eigenvalues --    0.94733   0.95277   0.95437   0.95556   0.95775
 Alpha virt. eigenvalues --    0.95829   0.96304   0.97014   0.97454   0.97978
 Alpha virt. eigenvalues --    0.98520   0.98708   0.99003   0.99335   0.99500
 Alpha virt. eigenvalues --    0.99973   1.00404   1.00680   1.00911   1.01134
 Alpha virt. eigenvalues --    1.01747   1.01886   1.01992   1.02269   1.02591
 Alpha virt. eigenvalues --    1.02767   1.03090   1.03233   1.03519   1.03877
 Alpha virt. eigenvalues --    1.04353   1.05217   1.05377   1.05753   1.06380
 Alpha virt. eigenvalues --    1.06538   1.07180   1.08139   1.08512   1.08940
 Alpha virt. eigenvalues --    1.10260   1.11478   1.11892   1.12435   1.12705
 Alpha virt. eigenvalues --    1.13575   1.14014   1.14093   1.14760   1.15754
 Alpha virt. eigenvalues --    1.16482   1.16921   1.17729   1.17896   1.18422
 Alpha virt. eigenvalues --    1.18829   1.19053   1.19970   1.20262   1.20695
 Alpha virt. eigenvalues --    1.20867   1.21436   1.21607   1.21792   1.21978
 Alpha virt. eigenvalues --    1.22114   1.22315   1.22454   1.22912   1.22957
 Alpha virt. eigenvalues --    1.23534   1.23645   1.24020   1.24686   1.25007
 Alpha virt. eigenvalues --    1.25358   1.25853   1.26719   1.27530   1.27867
 Alpha virt. eigenvalues --    1.28140   1.28708   1.28754   1.28789   1.29340
 Alpha virt. eigenvalues --    1.29655   1.30275   1.30895   1.31067   1.31355
 Alpha virt. eigenvalues --    1.31866   1.32735   1.33268   1.33947   1.34142
 Alpha virt. eigenvalues --    1.34220   1.34321   1.34573   1.34754   1.34887
 Alpha virt. eigenvalues --    1.35284   1.35491   1.35901   1.35922   1.36232
 Alpha virt. eigenvalues --    1.36362   1.36646   1.36972   1.37068   1.37523
 Alpha virt. eigenvalues --    1.37689   1.37981   1.38420   1.38655   1.38882
 Alpha virt. eigenvalues --    1.39069   1.39366   1.39437   1.39894   1.40625
 Alpha virt. eigenvalues --    1.41165   1.41565   1.41931   1.42395   1.42962
 Alpha virt. eigenvalues --    1.43309   1.43790   1.43973   1.44103   1.44801
 Alpha virt. eigenvalues --    1.45329   1.45523   1.45733   1.46341   1.46683
 Alpha virt. eigenvalues --    1.47194   1.47517   1.48081   1.48533   1.49210
 Alpha virt. eigenvalues --    1.49538   1.50373   1.50723   1.51451   1.51818
 Alpha virt. eigenvalues --    1.52314   1.52492   1.52564   1.52883   1.53496
 Alpha virt. eigenvalues --    1.53903   1.54307   1.55155   1.55497   1.56196
 Alpha virt. eigenvalues --    1.57180   1.58060   1.58572   1.59372   1.60439
 Alpha virt. eigenvalues --    1.62586   1.63367   1.64834   1.65629   1.65864
 Alpha virt. eigenvalues --    1.66091   1.66164   1.66251   1.66714   1.66801
 Alpha virt. eigenvalues --    1.66883   1.66980   1.67178   1.67416   1.67755
 Alpha virt. eigenvalues --    1.67948   1.68187   1.68576   1.68857   1.69026
 Alpha virt. eigenvalues --    1.69203   1.69542   1.69590   1.70117   1.70227
 Alpha virt. eigenvalues --    1.70761   1.70852   1.70986   1.71670   1.72473
 Alpha virt. eigenvalues --    1.73022   1.73139   1.73305   1.73438   1.73624
 Alpha virt. eigenvalues --    1.73789   1.73962   1.74402   1.74499   1.74780
 Alpha virt. eigenvalues --    1.75291   1.75345   1.75528   1.75760   1.76286
 Alpha virt. eigenvalues --    1.76391   1.76618   1.76827   1.77150   1.77264
 Alpha virt. eigenvalues --    1.77459   1.78239   1.78621   1.78923   1.79218
 Alpha virt. eigenvalues --    1.79347   1.79471   1.79575   1.79726   1.79783
 Alpha virt. eigenvalues --    1.79850   1.80234   1.81789   1.81877   1.82221
 Alpha virt. eigenvalues --    1.82804   1.82962   1.83089   1.83278   1.83459
 Alpha virt. eigenvalues --    1.83537   1.83763   1.83997   1.84133   1.84262
 Alpha virt. eigenvalues --    1.84375   1.84484   1.84702   1.85082   1.85267
 Alpha virt. eigenvalues --    1.85486   1.85841   1.86018   1.86038   1.86176
 Alpha virt. eigenvalues --    1.86539   1.86649   1.87066   1.87759   1.87788
 Alpha virt. eigenvalues --    1.88045   1.88116   1.88324   1.88491   1.88678
 Alpha virt. eigenvalues --    1.88796   1.88976   1.89191   1.89274   1.89532
 Alpha virt. eigenvalues --    1.89900   1.90192   1.90420   1.90537   1.91123
 Alpha virt. eigenvalues --    1.91209   1.91607   1.91996   1.92313   1.92573
 Alpha virt. eigenvalues --    1.93003   1.93358   1.93444   1.93576   1.93723
 Alpha virt. eigenvalues --    1.93768   1.94168   1.94494   1.95079   1.95509
 Alpha virt. eigenvalues --    1.95674   1.95722   1.95973   1.96754   1.97473
 Alpha virt. eigenvalues --    1.98152   1.98662   1.98771   1.99150   1.99376
 Alpha virt. eigenvalues --    1.99625   2.00225   2.00267   2.00532   2.00700
 Alpha virt. eigenvalues --    2.01107   2.01718   2.02497   2.02838   2.03148
 Alpha virt. eigenvalues --    2.03366   2.03560   2.04414   2.04882   2.05180
 Alpha virt. eigenvalues --    2.05323   2.05891   2.06065   2.06682   2.07034
 Alpha virt. eigenvalues --    2.07203   2.07699   2.07826   2.08488   2.09187
 Alpha virt. eigenvalues --    2.09581   2.10181   2.10757   2.11253   2.11594
 Alpha virt. eigenvalues --    2.12332   2.13473   2.13773   2.15231   2.15580
 Alpha virt. eigenvalues --    2.15743   2.16130   2.16296   2.16538   2.16824
 Alpha virt. eigenvalues --    2.17371   2.18060   2.18753   2.19002   2.20553
 Alpha virt. eigenvalues --    2.20895   2.21273   2.21302   2.21655   2.21910
 Alpha virt. eigenvalues --    2.22049   2.22378   2.23603   2.23943   2.24341
 Alpha virt. eigenvalues --    2.25088   2.26156   2.26954   2.27195   2.27327
 Alpha virt. eigenvalues --    2.27367   2.27700   2.27955   2.28139   2.28488
 Alpha virt. eigenvalues --    2.28815   2.29050   2.29090   2.29246   2.29356
 Alpha virt. eigenvalues --    2.29504   2.29629   2.29941   2.30776   2.30807
 Alpha virt. eigenvalues --    2.31391   2.32835   2.33287   2.33469   2.33752
 Alpha virt. eigenvalues --    2.34128   2.34215   2.35411   2.35617   2.35947
 Alpha virt. eigenvalues --    2.36108   2.36369   2.36886   2.37626   2.38333
 Alpha virt. eigenvalues --    2.38470   2.38708   2.38853   2.38955   2.39156
 Alpha virt. eigenvalues --    2.40118   2.40275   2.40745   2.41151   2.41174
 Alpha virt. eigenvalues --    2.41694   2.42171   2.42572   2.43450   2.43525
 Alpha virt. eigenvalues --    2.43891   2.44483   2.44804   2.45405   2.45814
 Alpha virt. eigenvalues --    2.46062   2.46578   2.46881   2.47186   2.47402
 Alpha virt. eigenvalues --    2.47771   2.48545   2.48776   2.49064   2.49579
 Alpha virt. eigenvalues --    2.49753   2.51542   2.52449   2.53966   2.54553
 Alpha virt. eigenvalues --    2.54726   2.55322   2.55743   2.55950   2.56383
 Alpha virt. eigenvalues --    2.57040   2.57900   2.58443   2.58906   2.59409
 Alpha virt. eigenvalues --    2.59851   2.59919   2.60093   2.60284   2.60505
 Alpha virt. eigenvalues --    2.60838   2.61246   2.61634   2.62125   2.62162
 Alpha virt. eigenvalues --    2.62281   2.62967   2.63337   2.63844   2.64580
 Alpha virt. eigenvalues --    2.64874   2.65705   2.65800   2.66038   2.66752
 Alpha virt. eigenvalues --    2.66931   2.67344   2.67804   2.68485   2.69177
 Alpha virt. eigenvalues --    2.69470   2.71157   2.71721   2.72928   2.73644
 Alpha virt. eigenvalues --    2.74047   2.74222   2.74621   2.75227   2.76327
 Alpha virt. eigenvalues --    2.76758   2.77540   2.78046   2.78285   2.78758
 Alpha virt. eigenvalues --    2.79189   2.80052   2.80534   2.81060   2.82249
 Alpha virt. eigenvalues --    2.82366   2.82552   2.82987   2.83373   2.84484
 Alpha virt. eigenvalues --    2.85999   2.87010   2.90747   2.91451   2.92116
 Alpha virt. eigenvalues --    2.93602   2.94662   2.95090   2.95922   2.97702
 Alpha virt. eigenvalues --    2.99456   2.99686   3.00912   3.02860   3.03436
 Alpha virt. eigenvalues --    3.05238   3.05562   3.05612   3.05995   3.06424
 Alpha virt. eigenvalues --    3.07416   3.08936   3.11306   3.12016   3.12122
 Alpha virt. eigenvalues --    3.12378   3.12742   3.13362   3.13786   3.14778
 Alpha virt. eigenvalues --    3.16656   3.18108   3.20524   3.21485   3.22008
 Alpha virt. eigenvalues --    3.22380   3.22772   3.22785   3.24387   3.25181
 Alpha virt. eigenvalues --    3.25822   3.26357   3.28422   3.28959   3.29026
 Alpha virt. eigenvalues --    3.29522   3.29832   3.30986   3.32197   3.33444
 Alpha virt. eigenvalues --    3.34652   3.36732   3.37762   3.40211   3.40310
 Alpha virt. eigenvalues --    3.40596   3.41502   3.41877   3.42603   3.43019
 Alpha virt. eigenvalues --    3.44677   3.46676   3.46879   3.47086   3.47966
 Alpha virt. eigenvalues --    3.50831   3.51325   3.53269   3.56051   3.71862
 Alpha virt. eigenvalues --    3.72167   3.73590   3.74021   3.86603   3.86933
 Alpha virt. eigenvalues --    3.88196   3.89121  18.73169
          Condensed to atoms (all electrons):
 Mulliken charges:
               1
     1  C   -0.007647
     2  C    0.388792
     3  C   -0.256763
     4  C    0.383766
     5  C    0.194351
     6  C   -0.332866
     7  C    0.143481
     8  C    0.398031
     9  C   -0.321893
    10  C    0.136905
    11  C   -0.502830
    12  C    0.255746
    13  H    0.119672
    14  H    0.115192
    15  H    0.115841
    16  N    0.245844
    17  N    0.334232
    18  N    0.205740
    19  N    0.214846
    20  C   -0.218272
    21  H    0.114289
    22  C   -0.221078
    23  H    0.107351
    24  C    0.533722
    25  C   -0.313864
    26  H    0.117607
    27  C    0.269910
    28  C    0.166412
    29  C    0.122103
    30  C    0.141947
    31  C   -0.669297
    32  C    0.136373
    33  C    0.170375
    34  C    0.242601
    35  C    0.265769
    36  C    0.540321
    37  C   -0.615879
    38  C    0.079674
    39  C    0.027835
    40  C    0.370125
    41  C    0.357639
    42  C    0.464578
    43  C   -0.763008
    44  C    0.266406
    45  C    0.253707
    46  C    0.172430
    47  C    0.205665
    48  C    0.587455
    49  C   -0.343620
    50  C   -0.232878
    51  H    0.168825
    52  F   -0.281409
    53  F   -0.351373
    54  F   -0.352511
    55  F   -0.351075
    56  F   -0.282112
    57  F   -0.281889
    58  F   -0.355470
    59  F   -0.351422
    60  F   -0.354808
    61  F   -0.282823
    62  F   -0.278871
    63  F   -0.348130
    64  F   -0.352501
    65  F   -0.346405
    66  F   -0.280268
    67  H    0.119549
    68  O   -0.585009
    69  C    0.180057
    70  C   -0.117795
    71  H    0.140832
    72  S   -0.025493
    73  Pd  -0.339137
    74  H    0.142397
 Sum of Mulliken charges =  -1.00000
 Mulliken charges with hydrogens summed into heavy atoms:
               1
     1  C   -0.007647
     2  C    0.388792
     3  C   -0.140922
     4  C    0.383766
     5  C    0.194351
     6  C   -0.190469
     7  C    0.143481
     8  C    0.398031
     9  C   -0.206701
    10  C    0.136905
    11  C   -0.383158
    12  C    0.255746
    16  N    0.245844
    17  N    0.334232
    18  N    0.205740
    19  N    0.214846
    20  C   -0.103983
    22  C   -0.113727
    24  C    0.533722
    25  C   -0.196257
    27  C    0.269910
    28  C    0.166412
    29  C    0.122103
    30  C    0.141947
    31  C   -0.669297
    32  C    0.136373
    33  C    0.170375
    34  C    0.242601
    35  C    0.265769
    36  C    0.540321
    37  C   -0.615879
    38  C    0.079674
    39  C    0.027835
    40  C    0.370125
    41  C    0.357639
    42  C    0.464578
    43  C   -0.763008
    44  C    0.266406
    45  C    0.253707
    46  C    0.172430
    47  C    0.205665
    48  C    0.587455
    49  C   -0.343620
    50  C   -0.113329
    52  F   -0.281409
    53  F   -0.351373
    54  F   -0.352511
    55  F   -0.351075
    56  F   -0.282112
    57  F   -0.281889
    58  F   -0.355470
    59  F   -0.351422
    60  F   -0.354808
    61  F   -0.282823
    62  F   -0.278871
    63  F   -0.348130
    64  F   -0.352501
    65  F   -0.346405
    66  F   -0.280268
    68  O   -0.585009
    69  C    0.348882
    70  C    0.023037
    72  S   -0.025493
    73  Pd  -0.339137
 Electronic spatial extent (au):  <R**2>=          58911.5026
 Charge=             -1.0000 electrons
 Dipole moment (field-independent basis, Debye):
    X=              1.9485    Y=              5.2861    Z=              0.7989  Tot=              5.6902
 Quadrupole moment (field-independent basis, Debye-Ang):
   XX=           -463.4247   YY=           -451.1546   ZZ=           -411.1129
   XY=             -5.7475   XZ=              0.0141   YZ=             -3.1487
 Traceless Quadrupole moment (field-independent basis, Debye-Ang):
   XX=            -21.5273   YY=             -9.2572   ZZ=             30.7845
   XY=             -5.7475   XZ=              0.0141   YZ=             -3.1487
 Octapole moment (field-independent basis, Debye-Ang**2):
  XXX=            133.0269  YYY=             41.4007  ZZZ=             -3.0785  XYY=            -46.6336
  XXY=            113.6675  XXZ=             11.2155  XZZ=             14.0354  YZZ=             14.0566
  YYZ=             10.4132  XYZ=             28.4176
 Hexadecapole moment (field-independent basis, Debye-Ang**3):
 XXXX=         -48000.0616 YYYY=         -31112.4168 ZZZZ=          -3410.3001 XXXY=           1401.1062
 XXXZ=           -128.9720 YYYX=          -1572.4382 YYYZ=            -68.2691 ZZZX=            -23.8881
 ZZZY=            -11.1479 XXYY=         -12684.7698 XXZZ=          -8463.7190 YYZZ=          -5749.1442
 XXYZ=             12.9004 YYXZ=              2.8085 ZZXY=            -86.9534
 N-N= 1.008310404627D+04 E-N=-2.940093139766D+04  KE= 3.820859865581D+03
 No NMR shielding tensors so no spin-rotation constants.
 Leave Link  601 at Wed Oct 20 21:32:49 2021, MaxMem= 13421772800 cpu:              10.6 elap:               0.8
 (Enter /local/apl/lx/g16c01/g16/l9999.exe)
 Unable to Open any file for archive entry.
 1\1\GINC-CCNN789\FOpt\RB3LYP\GenECP\C42H10F15N4O1Pd1S1(1-)\CPI\20-Oct-
 2021\0\\#p opt b3lyp/genecp geom=connectivity scf=maxcyc=1000\\title\\
 -1,1\C,-1.2607432504,-2.7252851263,-0.3490925182\C,1.3044238563,2.8999
 177625,0.0714149628\C,3.5311031243,2.5882283526,0.3115283255\C,2.85177
 86602,1.3197044334,0.2143284998\C,2.8328967476,-1.1719749984,0.0760388
 223\C,2.5177485399,-3.3837853192,-0.229739738\C,1.2771473735,-2.689134
 7749,-0.2895577274\C,-1.1801638137,2.9244217658,-0.0521957862\C,-2.456
 8729772,3.6098817777,-0.0632538114\C,-2.7743419051,-1.1302404825,-0.09
 10291759\C,-3.4717238552,-2.3629780265,-0.1128164051\C,-2.7609422678,1
 .3715831627,-0.0373658237\H,-4.5436841313,-2.4791108294,-0.0448808045\
 H,-2.5904018601,4.682499724,-0.0753845775\H,4.597440166,2.7192097434,0
 .4325372292\N,1.4750024963,-1.3556593431,-0.0967786614\N,-1.4225753478
 ,-1.3703161012,-0.2108667822\N,1.4933447651,1.5452078703,0.0697219931\
 N,-1.3935629419,1.5728802785,-0.0508799881\C,2.582599616,3.5618740147,
 0.2149387581\H,2.7323784325,4.6318587389,0.2489332913\C,3.4908436178,-
 2.4418861442,0.0105704735\H,4.554194659,-2.6052083433,0.119534244\C,-2
 .5467497375,-3.385363212,-0.2767247003\C,-3.4260771253,2.6550193561,-0
 .0423334027\H,-4.4967506643,2.8045268003,-0.036982821\C,0.0222226887,-
 3.3869706898,-0.5448155867\C,-3.3966880765,0.1397392178,-0.0239750575\
 C,3.470278685,0.0750198644,0.235139187\C,0.0677087542,3.5618192171,-0.
 0133089797\C,4.9576734474,0.0499004986,0.4129602451\C,5.8328848546,0.1
 159558955,-0.6766697712\C,5.5433847484,-0.0549892269,1.6792810357\C,7.
 2181181716,0.0834193602,-0.5229050323\C,6.9252068721,-0.0896244827,1.8
 608105961\C,7.7656161361,-0.0205352865,0.7529775336\C,0.0851879888,5.0
 566470379,-0.024019013\C,0.3190425534,5.7832893238,-1.1986577186\C,-0.
 126877572,5.8112065152,1.137047838\C,0.3425708818,7.1769659532,-1.2256
 773464\C,-0.1116097477,7.2052200065,1.1381737189\C,0.1248687231,7.8907
 315557,-0.0503209656\C,-4.8934680268,0.1447742425,0.0446438682\C,-5.68
 52717296,0.1406223713,-1.1090913074\C,-5.5726885403,0.1435863735,1.267
 9329262\C,-7.0782824244,0.1393656335,-1.0572417105\C,-6.9645014725,0.1
 413438777,1.347963805\C,-7.7198050959,0.1386024062,0.1784821878\C,-2.9
 337599929,-4.7978187669,-0.2809754844\C,-3.2023257516,-7.0955057491,-0
 .6988511265\H,-1.5211949724,-5.8709371774,-1.4948606502\F,4.7712152321
 ,-0.1222062012,2.7758476357\F,7.4538820119,-0.1872139579,3.0935288042\
 F,9.0986395118,-0.0515202542,0.9145205823\F,8.0298717072,0.1523559733,
 -1.5929783436\F,5.3491138247,0.2175362477,-1.92523229\F,0.5274597497,5
 .139204467,-2.3588489577\F,0.568260745,7.8388945337,-2.3748281066\F,0.
 1433306357,9.2338608733,-0.0627519266\F,-0.3184878936,7.8944296579,2.2
 748850178\F,-0.350818077,5.1949101698,2.3096497222\F,-5.1089144254,0.1
 444976741,-2.3220773253\F,-7.8078112809,0.1416027442,-2.1869937172\F,-
 9.0613719737,0.1393098081,0.2419004687\F,-7.5839149312,0.1438810422,2.
 5416022738\F,-4.8844166063,0.1470583168,2.4211210632\H,-2.9478565057,-
 8.0605307553,-1.124949631\O,0.0781804446,-4.581562092,-0.9093191994\C,
 -2.4294603327,-5.9155430942,-0.9130628245\C,-4.2950044055,-6.891264611
 6,0.1031905812\H,-5.0338450568,-7.6096806459,0.4327361943\S,-4.3928646
 2,-5.2392485506,0.6165503688\Pd,0.0384511004,0.0974812086,-0.082695884
 7\H,2.6175139059,-4.4516894855,-0.354798823\\Version=ES64L-G16RevC.01\
 State=1-A\HF=-3923.4098761\RMSD=8.322e-09\RMSF=2.222e-06\Dipole=0.0708
 722,2.2137178,0.3257949\Quadrupole=-12.6007497,-10.2787536,22.8795033,
 -6.0743196,-0.3421192,-2.5412892\PG=C01 [X(C42H10F15N4O1Pd1S1)]\\@
 The archive entry for this job was punched.


 THE MOLECULE ALSO HAS A BODY.  WHEN THIS BODY IS HIT, THE MOLECULE
 FEELS HURT ALL OVER -- A. KITAIGORODSKI
 Job cpu time:       3 days 21 hours 34 minutes 22.8 seconds.
 Elapsed time:       0 days  5 hours 51 minutes 21.2 seconds.
 File lengths (MBytes):  RWF=    922 Int=      0 D2E=      0 Chk=    123 Scr=      1
 Normal termination of Gaussian 16 at Wed Oct 20 21:32:50 2021.
