 Entering Gaussian System, Link 0=/local/apl/lx/g16c01/g16/._.g16
 Initial command:
 /local/apl/lx/g16c01/g16/l1.exe "/work/users/cpi/4776082.cccms1/Gau-241173.inp" -scrdir="/work/users/cpi/4776082.cccms1/"
 Default CPUs for threads: 0,1,2,3,4,5,6,7,8,9,10,11,12,13,14,15,16,17
 Default is to use a total of  18 processors:
                               18 via shared-memory
                                1 via Linda
 Entering Link 1 = /local/apl/lx/g16c01/g16/l1.exe PID=    241174.
  
 Copyright (c) 1988-2019, Gaussian, Inc.  All Rights Reserved.
  
 This is part of the Gaussian(R) 16 program.  It is based on
 the Gaussian(R) 09 system (copyright 2009, Gaussian, Inc.),
 the Gaussian(R) 03 system (copyright 2003, Gaussian, Inc.),
 the Gaussian(R) 98 system (copyright 1998, Gaussian, Inc.),
 the Gaussian(R) 94 system (copyright 1995, Gaussian, Inc.),
 the Gaussian 92(TM) system (copyright 1992, Gaussian, Inc.),
 the Gaussian 90(TM) system (copyright 1990, Gaussian, Inc.),
 the Gaussian 88(TM) system (copyright 1988, Gaussian, Inc.),
 the Gaussian 86(TM) system (copyright 1986, Carnegie Mellon
 University), and the Gaussian 82(TM) system (copyright 1983,
 Carnegie Mellon University). Gaussian is a federally registered
 trademark of Gaussian, Inc.
  
 This software contains proprietary and confidential information,
 including trade secrets, belonging to Gaussian, Inc.
  
 This software is provided under written license and may be
 used, copied, transmitted, or stored only in accord with that
 written license.
  
 The following legend is applicable only to US Government
 contracts under FAR:
  
                    RESTRICTED RIGHTS LEGEND
  
 Use, reproduction and disclosure by the US Government is
 subject to restrictions as set forth in subparagraphs (a)
 and (c) of the Commercial Computer Software - Restricted
 Rights clause in FAR 52.227-19.
  
 Gaussian, Inc.
 340 Quinnipiac St., Bldg. 40, Wallingford CT 06492
  
  
 ---------------------------------------------------------------
 Warning -- This program may not be used in any manner that
 competes with the business of Gaussian, Inc. or will provide
 assistance to any competitor of Gaussian, Inc.  The licensee
 of this program is prohibited from giving any competitor of
 Gaussian, Inc. access to this program.  By using this program,
 the user acknowledges that Gaussian, Inc. is engaged in the
 business of creating and licensing software in the field of
 computational chemistry and represents and warrants to the
 licensee that it is not a competitor of Gaussian, Inc. and that
 it will not use this program in any manner prohibited above.
 ---------------------------------------------------------------
  

 Cite this work as:
 Gaussian 16, Revision C.01,
 M. J. Frisch, G. W. Trucks, H. B. Schlegel, G. E. Scuseria, 
 M. A. Robb, J. R. Cheeseman, G. Scalmani, V. Barone, 
 G. A. Petersson, H. Nakatsuji, X. Li, M. Caricato, A. V. Marenich, 
 J. Bloino, B. G. Janesko, R. Gomperts, B. Mennucci, H. P. Hratchian, 
 J. V. Ortiz, A. F. Izmaylov, J. L. Sonnenberg, D. Williams-Young, 
 F. Ding, F. Lipparini, F. Egidi, J. Goings, B. Peng, A. Petrone, 
 T. Henderson, D. Ranasinghe, V. G. Zakrzewski, J. Gao, N. Rega, 
 G. Zheng, W. Liang, M. Hada, M. Ehara, K. Toyota, R. Fukuda, 
 J. Hasegawa, M. Ishida, T. Nakajima, Y. Honda, O. Kitao, H. Nakai, 
 T. Vreven, K. Throssell, J. A. Montgomery, Jr., J. E. Peralta, 
 F. Ogliaro, M. J. Bearpark, J. J. Heyd, E. N. Brothers, K. N. Kudin, 
 V. N. Staroverov, T. A. Keith, R. Kobayashi, J. Normand, 
 K. Raghavachari, A. P. Rendell, J. C. Burant, S. S. Iyengar, 
 J. Tomasi, M. Cossi, J. M. Millam, M. Klene, C. Adamo, R. Cammi, 
 J. W. Ochterski, R. L. Martin, K. Morokuma, O. Farkas, 
 J. B. Foresman, and D. J. Fox, Gaussian, Inc., Wallingford CT, 2019.
 
 ******************************************
 Gaussian 16:  ES64L-G16RevC.01  3-Jul-2019
                20-Oct-2021 
 ******************************************
 %mem=100GB
 %nprocshare=16
 Will use up to   16 processors via shared memory.
 %chk=Pt_3C6F5_Por_dithiophene_O-.chk
 ----------------------------------------------------
 # opt b3lyp/genecp geom=connectivity scf=maxcyc=1000
 ----------------------------------------------------
 1/18=20,19=15,26=3,38=1,57=2/1,3;
 2/9=110,12=2,17=6,18=5,40=1/2;
 3/5=7,11=2,16=1,17=8,25=1,30=1,71=1,74=-5/1,2,3;
 4//1;
 5/5=2,7=1000,38=5/2;
 6/7=2,8=2,9=2,10=2,28=1/1;
 7//1,2,3,16;
 1/18=20,19=15,26=3/3(2);
 2/9=110/2;
 99//99;
 2/9=110/2;
 3/5=7,6=1,11=2,16=1,17=8,25=1,30=1,71=1,74=-5,82=7/1,2,3;
 4/5=5,16=3,69=1/1;
 5/5=2,7=1000,38=5/2;
 7//1,2,3,16;
 1/18=20,19=15,26=3/3(-5);
 2/9=110/2;
 6/7=2,8=2,9=2,10=2,19=2,28=1/1;
 99/9=1/99;
 -----
 title
 -----
 Symbolic Z-matrix:
 Charge = -1 Multiplicity = 1
 C                    -1.2895   -2.40043  -0.86787 
 C                     1.25007   2.84211  -0.30677 
 C                     3.53851   2.61392   0.19369 
 C                     2.82085   1.27215   0.2021 
 C                     2.7056   -1.08095   0.11209 
 C                     2.40913  -3.13073  -0.68961 
 C                     1.22381  -2.43015  -0.86578 
 C                    -1.18093   2.92229  -0.19063 
 C                    -2.52764   3.65199   0.02442 
 C                    -2.74097  -1.01379   0.1165 
 C                    -3.35394  -2.2548    0.02299 
 C                    -2.78711   1.36342   0.27609 
 H                    -4.31112  -2.5284    0.41065 
 H                    -2.68687   4.70686  -0.05155 
 H                     4.56491   2.78641   0.43894 
 N                     1.35121  -1.21303  -0.36875 
 N                    -1.40325  -1.17023  -0.35933 
 N                     1.40893   1.53743  -0.13309 
 N                    -1.38316   1.59441  -0.06019 
 C                     2.6237    3.54116  -0.17014 
 H                     2.81112   4.58258  -0.31117 
 C                     3.28684  -2.33593   0.0384 
 H                     4.2312   -2.63098   0.43892 
 C                    -2.4904   -3.07084  -0.70286 
 C                    -3.46847   2.72696   0.33313 
 H                    -4.49366   2.91295   0.57018 
 C                    -0.03713  -3.00855  -1.45934 
 C                    -3.35958   0.15619   0.50998 
 C                     3.35767   0.06632   0.49054 
 C                     0.04538   3.52961  -0.49742 
 C                     4.70201  -0.06115   1.19055 
 C                     5.84382   0.26605   0.4813 
 C                     4.78324  -0.5113    2.52067 
 C                     7.0961    0.07338   1.06224 
 C                     6.0341   -0.58387   3.145 
 C                     7.19381  -0.32452   2.4029 
 C                     0.07046   4.97287  -0.99754 
 C                     0.40096   5.24827  -2.33577 
 C                    -0.24      6.00505  -0.12056 
 C                     0.36405   6.56965  -2.79885 
 C                    -0.15553   7.33074  -0.55358 
 C                     0.11628   7.61361  -1.89902 
 C                    -4.71814   0.0513    1.17618 
 C                    -5.84236   0.40058   0.44674 
 C                    -4.82552  -0.4005    2.49913 
 C                    -7.10574   0.23355   1.01046 
 C                    -6.08349  -0.44534   3.10693 
 C                    -7.22803  -0.1602    2.3505 
 C                    -2.80681  -4.47419  -1.19146 
 C                    -2.94933  -6.45614  -2.54839 
 H                    -1.50994  -4.65931  -2.91084 
 C                     2.69996  -4.54004  -1.17543 
 C                     2.81268  -6.52136  -2.53447 
 H                     1.41422  -4.694    -2.9037 
 F                     3.66345  -0.83204   3.20852 
 F                     6.12344  -0.89537   4.4571 
 F                     8.40589  -0.45656   2.97792 
 F                     8.20912   0.26047   0.32591 
 F                     5.73417   0.72307  -0.78333 
 F                     0.71045   4.243    -3.18602 
 F                     0.5567    6.83684  -4.10944 
 F                     0.13975   8.89246  -2.32653 
 F                    -0.32835   8.336     0.32838 
 F                    -0.57627   5.72146   1.15435 
 F                    -5.70597   0.85252  -0.81769 
 F                    -8.20539   0.44161   0.25954 
 F                    -8.44906  -0.26413   2.9114 
 F                    -6.19412  -0.75381   4.41745 
 F                    -3.72016  -0.74833   3.19727 
 H                     2.56615  -7.15085  -3.36201 
 H                    -2.70989  -7.09271  -3.37276 
 O                    -0.04543  -3.95152  -2.29542 
 C                     2.16654  -5.13442  -2.27735 
 C                    -2.27682  -5.08213  -2.28906 
 C                    -3.89445  -6.75207  -1.61314 
 H                    -4.52845  -7.60793  -1.63438 
 S                    -3.94485  -5.52474  -0.35264 
 S                     3.80892  -5.61528  -0.329 
 C                     3.74422  -6.83895  -1.59277 
 H                     4.36019  -7.70839  -1.61118 
 Pt                    0.01284   0.19326  -0.24556 
 

 GradGradGradGradGradGradGradGradGradGradGradGradGradGradGradGradGradGrad
 Berny optimization.
 Initialization pass.
                           ----------------------------
                           !    Initial Parameters    !
                           ! (Angstroms and Degrees)  !
 --------------------------                            --------------------------
 ! Name  Definition              Value          Derivative Info.                !
 --------------------------------------------------------------------------------
 ! R1    R(1,17)                 1.336          estimate D2E/DX2                !
 ! R2    R(1,24)                 1.3852         estimate D2E/DX2                !
 ! R3    R(1,27)                 1.5126         estimate D2E/DX2                !
 ! R4    R(2,18)                 1.3257         estimate D2E/DX2                !
 ! R5    R(2,20)                 1.5473         estimate D2E/DX2                !
 ! R6    R(2,30)                 1.4001         estimate D2E/DX2                !
 ! R7    R(3,4)                  1.5217         estimate D2E/DX2                !
 ! R8    R(3,15)                 1.0693         estimate D2E/DX2                !
 ! R9    R(3,20)                 1.3524         estimate D2E/DX2                !
 ! R10   R(4,18)                 1.4752         estimate D2E/DX2                !
 ! R11   R(4,29)                 1.3511         estimate D2E/DX2                !
 ! R12   R(5,16)                 1.4433         estimate D2E/DX2                !
 ! R13   R(5,22)                 1.385          estimate D2E/DX2                !
 ! R14   R(5,29)                 1.3728         estimate D2E/DX2                !
 ! R15   R(6,7)                  1.3881         estimate D2E/DX2                !
 ! R16   R(6,22)                 1.39           estimate D2E/DX2                !
 ! R17   R(6,52)                 1.5188         estimate D2E/DX2                !
 ! R18   R(7,16)                 1.3209         estimate D2E/DX2                !
 ! R19   R(7,27)                 1.5089         estimate D2E/DX2                !
 ! R20   R(8,9)                  1.5467         estimate D2E/DX2                !
 ! R21   R(8,19)                 1.3495         estimate D2E/DX2                !
 ! R22   R(8,30)                 1.4024         estimate D2E/DX2                !
 ! R23   R(9,14)                 1.0695         estimate D2E/DX2                !
 ! R24   R(9,25)                 1.355          estimate D2E/DX2                !
 ! R25   R(10,11)                1.3873         estimate D2E/DX2                !
 ! R26   R(10,17)                1.4284         estimate D2E/DX2                !
 ! R27   R(10,28)                1.3807         estimate D2E/DX2                !
 ! R28   R(11,13)                1.0683         estimate D2E/DX2                !
 ! R29   R(11,24)                1.3923         estimate D2E/DX2                !
 ! R30   R(12,19)                1.462          estimate D2E/DX2                !
 ! R31   R(12,25)                1.5254         estimate D2E/DX2                !
 ! R32   R(12,28)                1.3564         estimate D2E/DX2                !
 ! R33   R(16,81)                1.9453         estimate D2E/DX2                !
 ! R34   R(17,81)                1.9691         estimate D2E/DX2                !
 ! R35   R(18,81)                1.9413         estimate D2E/DX2                !
 ! R36   R(19,81)                1.9866         estimate D2E/DX2                !
 ! R37   R(20,21)                1.0675         estimate D2E/DX2                !
 ! R38   R(22,23)                1.0674         estimate D2E/DX2                !
 ! R39   R(24,49)                1.5193         estimate D2E/DX2                !
 ! R40   R(25,26)                1.0685         estimate D2E/DX2                !
 ! R41   R(27,72)                1.2603         estimate D2E/DX2                !
 ! R42   R(28,43)                1.5167         estimate D2E/DX2                !
 ! R43   R(29,31)                1.521          estimate D2E/DX2                !
 ! R44   R(30,37)                1.5277         estimate D2E/DX2                !
 ! R45   R(31,32)                1.3834         estimate D2E/DX2                !
 ! R46   R(31,33)                1.4066         estimate D2E/DX2                !
 ! R47   R(32,34)                1.3939         estimate D2E/DX2                !
 ! R48   R(32,59)                1.3491         estimate D2E/DX2                !
 ! R49   R(33,35)                1.3999         estimate D2E/DX2                !
 ! R50   R(33,55)                1.3527         estimate D2E/DX2                !
 ! R51   R(34,36)                1.4019         estimate D2E/DX2                !
 ! R52   R(34,58)                1.3476         estimate D2E/DX2                !
 ! R53   R(35,36)                1.401          estimate D2E/DX2                !
 ! R54   R(35,56)                1.3515         estimate D2E/DX2                !
 ! R55   R(36,57)                1.348          estimate D2E/DX2                !
 ! R56   R(37,38)                1.4057         estimate D2E/DX2                !
 ! R57   R(37,39)                1.3896         estimate D2E/DX2                !
 ! R58   R(38,40)                1.4007         estimate D2E/DX2                !
 ! R59   R(38,60)                1.3525         estimate D2E/DX2                !
 ! R60   R(39,41)                1.3972         estimate D2E/DX2                !
 ! R61   R(39,64)                1.3487         estimate D2E/DX2                !
 ! R62   R(40,42)                1.4003         estimate D2E/DX2                !
 ! R63   R(40,61)                1.3514         estimate D2E/DX2                !
 ! R64   R(41,42)                1.4015         estimate D2E/DX2                !
 ! R65   R(41,63)                1.3484         estimate D2E/DX2                !
 ! R66   R(42,62)                1.3486         estimate D2E/DX2                !
 ! R67   R(43,44)                1.3849         estimate D2E/DX2                !
 ! R68   R(43,45)                1.4021         estimate D2E/DX2                !
 ! R69   R(44,46)                1.3935         estimate D2E/DX2                !
 ! R70   R(44,65)                1.3497         estimate D2E/DX2                !
 ! R71   R(45,47)                1.3978         estimate D2E/DX2                !
 ! R72   R(45,69)                1.3529         estimate D2E/DX2                !
 ! R73   R(46,48)                1.402          estimate D2E/DX2                !
 ! R74   R(46,66)                1.3477         estimate D2E/DX2                !
 ! R75   R(47,48)                1.4012         estimate D2E/DX2                !
 ! R76   R(47,68)                1.3509         estimate D2E/DX2                !
 ! R77   R(48,67)                1.3477         estimate D2E/DX2                !
 ! R78   R(49,74)                1.3621         estimate D2E/DX2                !
 ! R79   R(49,77)                1.7614         estimate D2E/DX2                !
 ! R80   R(50,71)                1.0687         estimate D2E/DX2                !
 ! R81   R(50,74)                1.5516         estimate D2E/DX2                !
 ! R82   R(50,75)                1.3622         estimate D2E/DX2                !
 ! R83   R(51,74)                1.074          estimate D2E/DX2                !
 ! R84   R(52,73)                1.3609         estimate D2E/DX2                !
 ! R85   R(52,78)                1.7614         estimate D2E/DX2                !
 ! R86   R(53,70)                1.0686         estimate D2E/DX2                !
 ! R87   R(53,73)                1.5515         estimate D2E/DX2                !
 ! R88   R(53,79)                1.3621         estimate D2E/DX2                !
 ! R89   R(54,73)                1.0734         estimate D2E/DX2                !
 ! R90   R(75,76)                1.0653         estimate D2E/DX2                !
 ! R91   R(75,77)                1.76           estimate D2E/DX2                !
 ! R92   R(78,79)                1.7603         estimate D2E/DX2                !
 ! R93   R(79,80)                1.0657         estimate D2E/DX2                !
 ! A1    A(17,1,24)            109.0553         estimate D2E/DX2                !
 ! A2    A(17,1,27)            126.1226         estimate D2E/DX2                !
 ! A3    A(24,1,27)            124.735          estimate D2E/DX2                !
 ! A4    A(18,2,20)            109.0662         estimate D2E/DX2                !
 ! A5    A(18,2,30)            127.1695         estimate D2E/DX2                !
 ! A6    A(20,2,30)            123.6439         estimate D2E/DX2                !
 ! A7    A(4,3,15)             126.4189         estimate D2E/DX2                !
 ! A8    A(4,3,20)             106.6801         estimate D2E/DX2                !
 ! A9    A(15,3,20)            126.8981         estimate D2E/DX2                !
 ! A10   A(3,4,18)             106.9519         estimate D2E/DX2                !
 ! A11   A(3,4,29)             126.9254         estimate D2E/DX2                !
 ! A12   A(18,4,29)            126.1065         estimate D2E/DX2                !
 ! A13   A(16,5,22)            107.0482         estimate D2E/DX2                !
 ! A14   A(16,5,29)            127.883          estimate D2E/DX2                !
 ! A15   A(22,5,29)            124.9302         estimate D2E/DX2                !
 ! A16   A(7,6,22)             108.4867         estimate D2E/DX2                !
 ! A17   A(7,6,52)             126.2449         estimate D2E/DX2                !
 ! A18   A(22,6,52)            125.2535         estimate D2E/DX2                !
 ! A19   A(6,7,16)             109.5695         estimate D2E/DX2                !
 ! A20   A(6,7,27)             124.7529         estimate D2E/DX2                !
 ! A21   A(16,7,27)            125.5801         estimate D2E/DX2                !
 ! A22   A(9,8,19)             108.6806         estimate D2E/DX2                !
 ! A23   A(9,8,30)             125.9772         estimate D2E/DX2                !
 ! A24   A(19,8,30)            125.3305         estimate D2E/DX2                !
 ! A25   A(8,9,14)             125.8075         estimate D2E/DX2                !
 ! A26   A(8,9,25)             108.3094         estimate D2E/DX2                !
 ! A27   A(14,9,25)            125.882          estimate D2E/DX2                !
 ! A28   A(11,10,17)           107.0597         estimate D2E/DX2                !
 ! A29   A(11,10,28)           125.3994         estimate D2E/DX2                !
 ! A30   A(17,10,28)           127.3961         estimate D2E/DX2                !
 ! A31   A(10,11,13)           126.9069         estimate D2E/DX2                !
 ! A32   A(10,11,24)           106.583          estimate D2E/DX2                !
 ! A33   A(13,11,24)           126.496          estimate D2E/DX2                !
 ! A34   A(19,12,25)           107.2365         estimate D2E/DX2                !
 ! A35   A(19,12,28)           125.8427         estimate D2E/DX2                !
 ! A36   A(25,12,28)           126.9148         estimate D2E/DX2                !
 ! A37   A(5,16,7)             107.4696         estimate D2E/DX2                !
 ! A38   A(5,16,81)            123.9445         estimate D2E/DX2                !
 ! A39   A(7,16,81)            128.5815         estimate D2E/DX2                !
 ! A40   A(1,17,10)            107.9014         estimate D2E/DX2                !
 ! A41   A(1,17,81)            126.7522         estimate D2E/DX2                !
 ! A42   A(10,17,81)           125.339          estimate D2E/DX2                !
 ! A43   A(2,18,4)             108.7492         estimate D2E/DX2                !
 ! A44   A(2,18,81)            125.9907         estimate D2E/DX2                !
 ! A45   A(4,18,81)            125.2368         estimate D2E/DX2                !
 ! A46   A(8,19,12)            108.7595         estimate D2E/DX2                !
 ! A47   A(8,19,81)            125.4281         estimate D2E/DX2                !
 ! A48   A(12,19,81)           125.7918         estimate D2E/DX2                !
 ! A49   A(2,20,3)             108.3308         estimate D2E/DX2                !
 ! A50   A(2,20,21)            125.7984         estimate D2E/DX2                !
 ! A51   A(3,20,21)            125.8486         estimate D2E/DX2                !
 ! A52   A(5,22,6)             106.3192         estimate D2E/DX2                !
 ! A53   A(5,22,23)            126.9995         estimate D2E/DX2                !
 ! A54   A(6,22,23)            126.6659         estimate D2E/DX2                !
 ! A55   A(1,24,11)            108.4297         estimate D2E/DX2                !
 ! A56   A(1,24,49)            126.1059         estimate D2E/DX2                !
 ! A57   A(11,24,49)           125.4418         estimate D2E/DX2                !
 ! A58   A(9,25,12)            106.9521         estimate D2E/DX2                !
 ! A59   A(9,25,26)            126.7164         estimate D2E/DX2                !
 ! A60   A(12,25,26)           126.3314         estimate D2E/DX2                !
 ! A61   A(1,27,7)             112.5789         estimate D2E/DX2                !
 ! A62   A(1,27,72)            123.6939         estimate D2E/DX2                !
 ! A63   A(7,27,72)            123.5925         estimate D2E/DX2                !
 ! A64   A(10,28,12)           121.0613         estimate D2E/DX2                !
 ! A65   A(10,28,43)           117.8966         estimate D2E/DX2                !
 ! A66   A(12,28,43)           121.019          estimate D2E/DX2                !
 ! A67   A(4,29,5)             119.8866         estimate D2E/DX2                !
 ! A68   A(4,29,31)            121.6161         estimate D2E/DX2                !
 ! A69   A(5,29,31)            118.4662         estimate D2E/DX2                !
 ! A70   A(2,30,8)             120.6607         estimate D2E/DX2                !
 ! A71   A(2,30,37)            119.6272         estimate D2E/DX2                !
 ! A72   A(8,30,37)            119.6761         estimate D2E/DX2                !
 ! A73   A(29,31,32)           118.2756         estimate D2E/DX2                !
 ! A74   A(29,31,33)           120.8688         estimate D2E/DX2                !
 ! A75   A(32,31,33)           120.8532         estimate D2E/DX2                !
 ! A76   A(31,32,34)           119.6802         estimate D2E/DX2                !
 ! A77   A(31,32,59)           119.578          estimate D2E/DX2                !
 ! A78   A(34,32,59)           120.6985         estimate D2E/DX2                !
 ! A79   A(31,33,35)           119.3363         estimate D2E/DX2                !
 ! A80   A(31,33,55)           120.5917         estimate D2E/DX2                !
 ! A81   A(35,33,55)           120.0394         estimate D2E/DX2                !
 ! A82   A(32,34,36)           120.0294         estimate D2E/DX2                !
 ! A83   A(32,34,58)           119.6777         estimate D2E/DX2                !
 ! A84   A(36,34,58)           120.2905         estimate D2E/DX2                !
 ! A85   A(33,35,36)           119.591          estimate D2E/DX2                !
 ! A86   A(33,35,56)           120.264          estimate D2E/DX2                !
 ! A87   A(36,35,56)           120.1442         estimate D2E/DX2                !
 ! A88   A(34,36,35)           120.0926         estimate D2E/DX2                !
 ! A89   A(34,36,57)           119.8946         estimate D2E/DX2                !
 ! A90   A(35,36,57)           120.0128         estimate D2E/DX2                !
 ! A91   A(30,37,38)           120.0416         estimate D2E/DX2                !
 ! A92   A(30,37,39)           119.4384         estimate D2E/DX2                !
 ! A93   A(38,37,39)           120.5197         estimate D2E/DX2                !
 ! A94   A(37,38,40)           119.5634         estimate D2E/DX2                !
 ! A95   A(37,38,60)           120.4416         estimate D2E/DX2                !
 ! A96   A(40,38,60)           119.9593         estimate D2E/DX2                !
 ! A97   A(37,39,41)           119.7159         estimate D2E/DX2                !
 ! A98   A(37,39,64)           119.7439         estimate D2E/DX2                !
 ! A99   A(41,39,64)           120.5016         estimate D2E/DX2                !
 ! A100  A(38,40,42)           119.7049         estimate D2E/DX2                !
 ! A101  A(38,40,61)           120.2264         estimate D2E/DX2                !
 ! A102  A(42,40,61)           120.067          estimate D2E/DX2                !
 ! A103  A(39,41,42)           120.0512         estimate D2E/DX2                !
 ! A104  A(39,41,63)           119.7953         estimate D2E/DX2                !
 ! A105  A(42,41,63)           120.1523         estimate D2E/DX2                !
 ! A106  A(40,42,41)           120.0485         estimate D2E/DX2                !
 ! A107  A(40,42,62)           120.011          estimate D2E/DX2                !
 ! A108  A(41,42,62)           119.9405         estimate D2E/DX2                !
 ! A109  A(28,43,44)           118.5758         estimate D2E/DX2                !
 ! A110  A(28,43,45)           120.3529         estimate D2E/DX2                !
 ! A111  A(44,43,45)           121.0695         estimate D2E/DX2                !
 ! A112  A(43,44,46)           119.5162         estimate D2E/DX2                !
 ! A113  A(43,44,65)           119.7264         estimate D2E/DX2                !
 ! A114  A(46,44,65)           120.7135         estimate D2E/DX2                !
 ! A115  A(43,45,47)           119.3103         estimate D2E/DX2                !
 ! A116  A(43,45,69)           120.4772         estimate D2E/DX2                !
 ! A117  A(47,45,69)           120.177          estimate D2E/DX2                !
 ! A118  A(44,46,48)           119.9598         estimate D2E/DX2                !
 ! A119  A(44,46,66)           119.7248         estimate D2E/DX2                !
 ! A120  A(48,46,66)           120.3133         estimate D2E/DX2                !
 ! A121  A(45,47,48)           119.5924         estimate D2E/DX2                !
 ! A122  A(45,47,68)           120.1892         estimate D2E/DX2                !
 ! A123  A(48,47,68)           120.2172         estimate D2E/DX2                !
 ! A124  A(46,48,47)           120.1236         estimate D2E/DX2                !
 ! A125  A(46,48,67)           119.8981         estimate D2E/DX2                !
 ! A126  A(47,48,67)           119.9783         estimate D2E/DX2                !
 ! A127  A(24,49,74)           126.1853         estimate D2E/DX2                !
 ! A128  A(24,49,77)           122.1632         estimate D2E/DX2                !
 ! A129  A(74,49,77)           111.6514         estimate D2E/DX2                !
 ! A130  A(71,50,74)           124.0069         estimate D2E/DX2                !
 ! A131  A(71,50,75)           123.7561         estimate D2E/DX2                !
 ! A132  A(74,50,75)           112.2319         estimate D2E/DX2                !
 ! A133  A(6,52,73)            126.1009         estimate D2E/DX2                !
 ! A134  A(6,52,78)            122.2288         estimate D2E/DX2                !
 ! A135  A(73,52,78)           111.6703         estimate D2E/DX2                !
 ! A136  A(70,53,73)           123.978          estimate D2E/DX2                !
 ! A137  A(70,53,79)           123.7667         estimate D2E/DX2                !
 ! A138  A(73,53,79)           112.2505         estimate D2E/DX2                !
 ! A139  A(52,73,53)           111.1849         estimate D2E/DX2                !
 ! A140  A(52,73,54)           124.6092         estimate D2E/DX2                !
 ! A141  A(53,73,54)           124.1895         estimate D2E/DX2                !
 ! A142  A(49,74,50)           111.1797         estimate D2E/DX2                !
 ! A143  A(49,74,51)           124.6563         estimate D2E/DX2                !
 ! A144  A(50,74,51)           124.1489         estimate D2E/DX2                !
 ! A145  A(50,75,76)           125.0129         estimate D2E/DX2                !
 ! A146  A(50,75,77)           111.1056         estimate D2E/DX2                !
 ! A147  A(76,75,77)           123.8808         estimate D2E/DX2                !
 ! A148  A(49,77,75)            93.2304         estimate D2E/DX2                !
 ! A149  A(52,78,79)            93.2226         estimate D2E/DX2                !
 ! A150  A(53,79,78)           111.0626         estimate D2E/DX2                !
 ! A151  A(53,79,80)           124.9992         estimate D2E/DX2                !
 ! A152  A(78,79,80)           123.9378         estimate D2E/DX2                !
 ! A153  A(16,81,17)            89.4583         estimate D2E/DX2                !
 ! A154  A(16,81,18)            90.5412         estimate D2E/DX2                !
 ! A155  A(17,81,19)            89.3358         estimate D2E/DX2                !
 ! A156  A(18,81,19)            90.6644         estimate D2E/DX2                !
 ! A157  L(16,81,19,18,-1)     181.2057         estimate D2E/DX2                !
 ! A158  L(17,81,18,19,-1)     180.0002         estimate D2E/DX2                !
 ! A159  L(16,81,19,18,-2)     181.7963         estimate D2E/DX2                !
 ! A160  L(17,81,18,19,-2)     179.9908         estimate D2E/DX2                !
 ! D1    D(24,1,17,10)          -1.9514         estimate D2E/DX2                !
 ! D2    D(24,1,17,81)         177.0942         estimate D2E/DX2                !
 ! D3    D(27,1,17,10)        -178.6723         estimate D2E/DX2                !
 ! D4    D(27,1,17,81)           0.3733         estimate D2E/DX2                !
 ! D5    D(17,1,24,11)          -4.3422         estimate D2E/DX2                !
 ! D6    D(17,1,24,49)         177.3173         estimate D2E/DX2                !
 ! D7    D(27,1,24,11)         172.4349         estimate D2E/DX2                !
 ! D8    D(27,1,24,49)          -5.9056         estimate D2E/DX2                !
 ! D9    D(17,1,27,7)           28.1067         estimate D2E/DX2                !
 ! D10   D(17,1,27,72)        -155.984          estimate D2E/DX2                !
 ! D11   D(24,1,27,7)         -148.1212         estimate D2E/DX2                !
 ! D12   D(24,1,27,72)          27.7881         estimate D2E/DX2                !
 ! D13   D(20,2,18,4)            3.3291         estimate D2E/DX2                !
 ! D14   D(20,2,18,81)        -178.3594         estimate D2E/DX2                !
 ! D15   D(30,2,18,4)         -172.7667         estimate D2E/DX2                !
 ! D16   D(30,2,18,81)           5.5449         estimate D2E/DX2                !
 ! D17   D(18,2,20,3)           -5.006          estimate D2E/DX2                !
 ! D18   D(18,2,20,21)         176.6286         estimate D2E/DX2                !
 ! D19   D(30,2,20,3)          171.2571         estimate D2E/DX2                !
 ! D20   D(30,2,20,21)          -7.1082         estimate D2E/DX2                !
 ! D21   D(18,2,30,8)           16.2264         estimate D2E/DX2                !
 ! D22   D(18,2,30,37)        -165.9626         estimate D2E/DX2                !
 ! D23   D(20,2,30,8)         -159.3401         estimate D2E/DX2                !
 ! D24   D(20,2,30,37)          18.4709         estimate D2E/DX2                !
 ! D25   D(15,3,4,18)          177.0364         estimate D2E/DX2                !
 ! D26   D(15,3,4,29)           -1.5621         estimate D2E/DX2                !
 ! D27   D(20,3,4,18)           -2.3708         estimate D2E/DX2                !
 ! D28   D(20,3,4,29)          179.0307         estimate D2E/DX2                !
 ! D29   D(4,3,20,2)             4.2248         estimate D2E/DX2                !
 ! D30   D(4,3,20,21)         -177.4108         estimate D2E/DX2                !
 ! D31   D(15,3,20,2)         -175.1786         estimate D2E/DX2                !
 ! D32   D(15,3,20,21)           3.1857         estimate D2E/DX2                !
 ! D33   D(3,4,18,2)            -0.8147         estimate D2E/DX2                !
 ! D34   D(3,4,18,81)         -179.142          estimate D2E/DX2                !
 ! D35   D(29,4,18,2)          177.7986         estimate D2E/DX2                !
 ! D36   D(29,4,18,81)          -0.5287         estimate D2E/DX2                !
 ! D37   D(3,4,29,5)          -162.2306         estimate D2E/DX2                !
 ! D38   D(3,4,29,31)           15.7093         estimate D2E/DX2                !
 ! D39   D(18,4,29,5)           19.4288         estimate D2E/DX2                !
 ! D40   D(18,4,29,31)        -162.6313         estimate D2E/DX2                !
 ! D41   D(22,5,16,7)           -8.2544         estimate D2E/DX2                !
 ! D42   D(22,5,16,81)         171.0448         estimate D2E/DX2                !
 ! D43   D(29,5,16,7)          167.5918         estimate D2E/DX2                !
 ! D44   D(29,5,16,81)         -13.109          estimate D2E/DX2                !
 ! D45   D(16,5,22,6)           10.6407         estimate D2E/DX2                !
 ! D46   D(16,5,22,23)        -170.7186         estimate D2E/DX2                !
 ! D47   D(29,5,22,6)         -165.3607         estimate D2E/DX2                !
 ! D48   D(29,5,22,23)          13.28           estimate D2E/DX2                !
 ! D49   D(16,5,29,4)          -12.4209         estimate D2E/DX2                !
 ! D50   D(16,5,29,31)         169.5746         estimate D2E/DX2                !
 ! D51   D(22,5,29,4)          162.7336         estimate D2E/DX2                !
 ! D52   D(22,5,29,31)         -15.2708         estimate D2E/DX2                !
 ! D53   D(22,6,7,16)            4.3068         estimate D2E/DX2                !
 ! D54   D(22,6,7,27)         -172.2684         estimate D2E/DX2                !
 ! D55   D(52,6,7,16)         -177.0416         estimate D2E/DX2                !
 ! D56   D(52,6,7,27)            6.3832         estimate D2E/DX2                !
 ! D57   D(7,6,22,5)            -9.3778         estimate D2E/DX2                !
 ! D58   D(7,6,22,23)          171.9755         estimate D2E/DX2                !
 ! D59   D(52,6,22,5)          171.9539         estimate D2E/DX2                !
 ! D60   D(52,6,22,23)          -6.6928         estimate D2E/DX2                !
 ! D61   D(7,6,52,73)           29.8123         estimate D2E/DX2                !
 ! D62   D(7,6,52,78)         -150.0971         estimate D2E/DX2                !
 ! D63   D(22,6,52,73)        -151.7538         estimate D2E/DX2                !
 ! D64   D(22,6,52,78)          28.3368         estimate D2E/DX2                !
 ! D65   D(6,7,16,5)             2.4158         estimate D2E/DX2                !
 ! D66   D(6,7,16,81)         -176.8405         estimate D2E/DX2                !
 ! D67   D(27,7,16,5)          178.956          estimate D2E/DX2                !
 ! D68   D(27,7,16,81)          -0.3003         estimate D2E/DX2                !
 ! D69   D(6,7,27,1)           147.7204         estimate D2E/DX2                !
 ! D70   D(6,7,27,72)          -28.1938         estimate D2E/DX2                !
 ! D71   D(16,7,27,1)          -28.3111         estimate D2E/DX2                !
 ! D72   D(16,7,27,72)         155.7747         estimate D2E/DX2                !
 ! D73   D(19,8,9,14)         -177.719          estimate D2E/DX2                !
 ! D74   D(19,8,9,25)            2.6397         estimate D2E/DX2                !
 ! D75   D(30,8,9,14)            1.0875         estimate D2E/DX2                !
 ! D76   D(30,8,9,25)         -178.5537         estimate D2E/DX2                !
 ! D77   D(9,8,19,12)           -1.7994         estimate D2E/DX2                !
 ! D78   D(9,8,19,81)          179.7759         estimate D2E/DX2                !
 ! D79   D(30,8,19,12)         179.3845         estimate D2E/DX2                !
 ! D80   D(30,8,19,81)           0.9598         estimate D2E/DX2                !
 ! D81   D(9,8,30,2)           162.0714         estimate D2E/DX2                !
 ! D82   D(9,8,30,37)          -15.7386         estimate D2E/DX2                !
 ! D83   D(19,8,30,2)          -19.3145         estimate D2E/DX2                !
 ! D84   D(19,8,30,37)         162.8755         estimate D2E/DX2                !
 ! D85   D(8,9,25,12)           -2.2145         estimate D2E/DX2                !
 ! D86   D(8,9,25,26)          177.8857         estimate D2E/DX2                !
 ! D87   D(14,9,25,12)         178.1446         estimate D2E/DX2                !
 ! D88   D(14,9,25,26)          -1.7552         estimate D2E/DX2                !
 ! D89   D(17,10,11,13)        171.3446         estimate D2E/DX2                !
 ! D90   D(17,10,11,24)         -9.9595         estimate D2E/DX2                !
 ! D91   D(28,10,11,13)        -12.7678         estimate D2E/DX2                !
 ! D92   D(28,10,11,24)        165.9282         estimate D2E/DX2                !
 ! D93   D(11,10,17,1)           7.5101         estimate D2E/DX2                !
 ! D94   D(11,10,17,81)       -171.5525         estimate D2E/DX2                !
 ! D95   D(28,10,17,1)        -168.2703         estimate D2E/DX2                !
 ! D96   D(28,10,17,81)         12.6672         estimate D2E/DX2                !
 ! D97   D(11,10,28,12)       -164.2844         estimate D2E/DX2                !
 ! D98   D(11,10,28,43)         13.9856         estimate D2E/DX2                !
 ! D99   D(17,10,28,12)         10.7651         estimate D2E/DX2                !
 ! D100  D(17,10,28,43)       -170.9649         estimate D2E/DX2                !
 ! D101  D(10,11,24,1)           8.9463         estimate D2E/DX2                !
 ! D102  D(10,11,24,49)       -172.6994         estimate D2E/DX2                !
 ! D103  D(13,11,24,1)        -172.3508         estimate D2E/DX2                !
 ! D104  D(13,11,24,49)          6.0035         estimate D2E/DX2                !
 ! D105  D(25,12,19,8)           0.4867         estimate D2E/DX2                !
 ! D106  D(25,12,19,81)        178.9042         estimate D2E/DX2                !
 ! D107  D(28,12,19,8)        -178.6682         estimate D2E/DX2                !
 ! D108  D(28,12,19,81)         -0.2506         estimate D2E/DX2                !
 ! D109  D(19,12,25,9)           1.2009         estimate D2E/DX2                !
 ! D110  D(19,12,25,26)       -178.8988         estimate D2E/DX2                !
 ! D111  D(28,12,25,9)        -179.6559         estimate D2E/DX2                !
 ! D112  D(28,12,25,26)          0.2443         estimate D2E/DX2                !
 ! D113  D(19,12,28,10)        -17.0062         estimate D2E/DX2                !
 ! D114  D(19,12,28,43)        164.7779         estimate D2E/DX2                !
 ! D115  D(25,12,28,10)        164.0034         estimate D2E/DX2                !
 ! D116  D(25,12,28,43)        -14.2125         estimate D2E/DX2                !
 ! D117  D(5,16,81,17)        -156.8532         estimate D2E/DX2                !
 ! D118  D(5,16,81,18)          23.1376         estimate D2E/DX2                !
 ! D119  D(7,16,81,17)          22.2917         estimate D2E/DX2                !
 ! D120  D(7,16,81,18)        -157.7175         estimate D2E/DX2                !
 ! D121  D(1,17,81,16)         -22.0296         estimate D2E/DX2                !
 ! D122  D(1,17,81,19)         159.7665         estimate D2E/DX2                !
 ! D123  D(10,17,81,16)        156.8571         estimate D2E/DX2                !
 ! D124  D(10,17,81,19)        -21.3468         estimate D2E/DX2                !
 ! D125  D(2,18,81,16)         164.6033         estimate D2E/DX2                !
 ! D126  D(2,18,81,19)         -17.1929         estimate D2E/DX2                !
 ! D127  D(4,18,81,16)         -17.3543         estimate D2E/DX2                !
 ! D128  D(4,18,81,19)         160.8494         estimate D2E/DX2                !
 ! D129  D(8,19,81,17)        -165.9026         estimate D2E/DX2                !
 ! D130  D(8,19,81,18)          14.1066         estimate D2E/DX2                !
 ! D131  D(12,19,81,17)         15.9364         estimate D2E/DX2                !
 ! D132  D(12,19,81,18)       -164.0544         estimate D2E/DX2                !
 ! D133  D(1,24,49,74)         -29.9133         estimate D2E/DX2                !
 ! D134  D(1,24,49,77)         149.9209         estimate D2E/DX2                !
 ! D135  D(11,24,49,74)        152.0193         estimate D2E/DX2                !
 ! D136  D(11,24,49,77)        -28.1465         estimate D2E/DX2                !
 ! D137  D(10,28,43,44)       -105.202          estimate D2E/DX2                !
 ! D138  D(10,28,43,45)         74.3081         estimate D2E/DX2                !
 ! D139  D(12,28,43,44)         73.0688         estimate D2E/DX2                !
 ! D140  D(12,28,43,45)       -107.4211         estimate D2E/DX2                !
 ! D141  D(4,29,31,32)         -71.2606         estimate D2E/DX2                !
 ! D142  D(4,29,31,33)         109.2918         estimate D2E/DX2                !
 ! D143  D(5,29,31,32)         106.7076         estimate D2E/DX2                !
 ! D144  D(5,29,31,33)         -72.74           estimate D2E/DX2                !
 ! D145  D(2,30,37,38)          72.6851         estimate D2E/DX2                !
 ! D146  D(2,30,37,39)        -107.5345         estimate D2E/DX2                !
 ! D147  D(8,30,37,38)        -109.4821         estimate D2E/DX2                !
 ! D148  D(8,30,37,39)          70.2984         estimate D2E/DX2                !
 ! D149  D(29,31,32,34)       -175.624          estimate D2E/DX2                !
 ! D150  D(29,31,32,59)          2.0001         estimate D2E/DX2                !
 ! D151  D(33,31,32,34)          3.8236         estimate D2E/DX2                !
 ! D152  D(33,31,32,59)       -178.5523         estimate D2E/DX2                !
 ! D153  D(29,31,33,35)       -178.3726         estimate D2E/DX2                !
 ! D154  D(29,31,33,55)         -0.4511         estimate D2E/DX2                !
 ! D155  D(32,31,33,35)          2.1941         estimate D2E/DX2                !
 ! D156  D(32,31,33,55)       -179.8843         estimate D2E/DX2                !
 ! D157  D(31,32,34,36)         -6.2607         estimate D2E/DX2                !
 ! D158  D(31,32,34,58)        173.1803         estimate D2E/DX2                !
 ! D159  D(59,32,34,36)        176.1424         estimate D2E/DX2                !
 ! D160  D(59,32,34,58)         -4.4166         estimate D2E/DX2                !
 ! D161  D(31,33,35,36)         -5.7384         estimate D2E/DX2                !
 ! D162  D(31,33,35,56)        173.9232         estimate D2E/DX2                !
 ! D163  D(55,33,35,36)        176.3283         estimate D2E/DX2                !
 ! D164  D(55,33,35,56)         -4.0101         estimate D2E/DX2                !
 ! D165  D(32,34,36,35)          2.6948         estimate D2E/DX2                !
 ! D166  D(32,34,36,57)       -177.2626         estimate D2E/DX2                !
 ! D167  D(58,34,36,35)       -176.7428         estimate D2E/DX2                !
 ! D168  D(58,34,36,57)          3.2999         estimate D2E/DX2                !
 ! D169  D(33,35,36,34)          3.3319         estimate D2E/DX2                !
 ! D170  D(33,35,36,57)       -176.7108         estimate D2E/DX2                !
 ! D171  D(56,35,36,34)       -176.3301         estimate D2E/DX2                !
 ! D172  D(56,35,36,57)          3.6272         estimate D2E/DX2                !
 ! D173  D(30,37,38,40)        177.2202         estimate D2E/DX2                !
 ! D174  D(30,37,38,60)         -0.6079         estimate D2E/DX2                !
 ! D175  D(39,37,38,40)         -2.5578         estimate D2E/DX2                !
 ! D176  D(39,37,38,60)        179.6141         estimate D2E/DX2                !
 ! D177  D(30,37,39,41)        176.8837         estimate D2E/DX2                !
 ! D178  D(30,37,39,64)         -0.8668         estimate D2E/DX2                !
 ! D179  D(38,37,39,41)         -3.3369         estimate D2E/DX2                !
 ! D180  D(38,37,39,64)        178.9126         estimate D2E/DX2                !
 ! D181  D(37,38,40,42)          5.701          estimate D2E/DX2                !
 ! D182  D(37,38,40,61)       -173.8129         estimate D2E/DX2                !
 ! D183  D(60,38,40,42)       -176.4602         estimate D2E/DX2                !
 ! D184  D(60,38,40,61)          4.0258         estimate D2E/DX2                !
 ! D185  D(37,39,41,42)          6.0751         estimate D2E/DX2                !
 ! D186  D(37,39,41,63)       -173.528          estimate D2E/DX2                !
 ! D187  D(64,39,41,42)       -176.1918         estimate D2E/DX2                !
 ! D188  D(64,39,41,63)          4.2052         estimate D2E/DX2                !
 ! D189  D(38,40,42,41)         -2.9892         estimate D2E/DX2                !
 ! D190  D(38,40,42,62)        176.9756         estimate D2E/DX2                !
 ! D191  D(61,40,42,41)        176.5255         estimate D2E/DX2                !
 ! D192  D(61,40,42,62)         -3.5097         estimate D2E/DX2                !
 ! D193  D(39,41,42,40)         -2.919          estimate D2E/DX2                !
 ! D194  D(39,41,42,62)        177.1162         estimate D2E/DX2                !
 ! D195  D(63,41,42,40)        176.6826         estimate D2E/DX2                !
 ! D196  D(63,41,42,62)         -3.2822         estimate D2E/DX2                !
 ! D197  D(28,43,44,46)        176.0533         estimate D2E/DX2                !
 ! D198  D(28,43,44,65)         -1.5513         estimate D2E/DX2                !
 ! D199  D(45,43,44,46)         -3.4532         estimate D2E/DX2                !
 ! D200  D(45,43,44,65)        178.9422         estimate D2E/DX2                !
 ! D201  D(28,43,45,47)        177.8281         estimate D2E/DX2                !
 ! D202  D(28,43,45,69)         -0.0088         estimate D2E/DX2                !
 ! D203  D(44,43,45,47)         -2.6742         estimate D2E/DX2                !
 ! D204  D(44,43,45,69)        179.4889         estimate D2E/DX2                !
 ! D205  D(43,44,46,48)          6.2307         estimate D2E/DX2                !
 ! D206  D(43,44,46,66)       -173.2415         estimate D2E/DX2                !
 ! D207  D(65,44,46,48)       -176.1889         estimate D2E/DX2                !
 ! D208  D(65,44,46,66)          4.3389         estimate D2E/DX2                !
 ! D209  D(43,45,47,48)          5.9741         estimate D2E/DX2                !
 ! D210  D(43,45,47,68)       -173.6279         estimate D2E/DX2                !
 ! D211  D(69,45,47,48)       -176.1824         estimate D2E/DX2                !
 ! D212  D(69,45,47,68)          4.2156         estimate D2E/DX2                !
 ! D213  D(44,46,48,47)         -2.9169         estimate D2E/DX2                !
 ! D214  D(44,46,48,67)        177.0712         estimate D2E/DX2                !
 ! D215  D(66,46,48,47)        176.5523         estimate D2E/DX2                !
 ! D216  D(66,46,48,67)         -3.4597         estimate D2E/DX2                !
 ! D217  D(45,47,48,46)         -3.2244         estimate D2E/DX2                !
 ! D218  D(45,47,48,67)        176.7875         estimate D2E/DX2                !
 ! D219  D(68,47,48,46)        176.3774         estimate D2E/DX2                !
 ! D220  D(68,47,48,67)         -3.6107         estimate D2E/DX2                !
 ! D221  D(24,49,74,50)       -174.1591         estimate D2E/DX2                !
 ! D222  D(24,49,74,51)          4.4724         estimate D2E/DX2                !
 ! D223  D(77,49,74,50)          5.9919         estimate D2E/DX2                !
 ! D224  D(77,49,74,51)       -175.3766         estimate D2E/DX2                !
 ! D225  D(24,49,77,75)        172.7738         estimate D2E/DX2                !
 ! D226  D(74,49,77,75)         -7.3701         estimate D2E/DX2                !
 ! D227  D(71,50,74,49)        178.1417         estimate D2E/DX2                !
 ! D228  D(71,50,74,51)         -0.4981         estimate D2E/DX2                !
 ! D229  D(75,50,74,49)         -1.0656         estimate D2E/DX2                !
 ! D230  D(75,50,74,51)       -179.7054         estimate D2E/DX2                !
 ! D231  D(71,50,75,76)         -3.8685         estimate D2E/DX2                !
 ! D232  D(71,50,75,77)        176.4232         estimate D2E/DX2                !
 ! D233  D(74,50,75,76)        175.3411         estimate D2E/DX2                !
 ! D234  D(74,50,75,77)         -4.3672         estimate D2E/DX2                !
 ! D235  D(6,52,73,53)         174.0444         estimate D2E/DX2                !
 ! D236  D(6,52,73,54)          -4.5351         estimate D2E/DX2                !
 ! D237  D(78,52,73,53)         -6.0381         estimate D2E/DX2                !
 ! D238  D(78,52,73,54)        175.3824         estimate D2E/DX2                !
 ! D239  D(6,52,78,79)        -172.6553         estimate D2E/DX2                !
 ! D240  D(73,52,78,79)          7.4235         estimate D2E/DX2                !
 ! D241  D(70,53,73,52)       -178.1462         estimate D2E/DX2                !
 ! D242  D(70,53,73,54)          0.4404         estimate D2E/DX2                !
 ! D243  D(79,53,73,52)          1.0787         estimate D2E/DX2                !
 ! D244  D(79,53,73,54)        179.6653         estimate D2E/DX2                !
 ! D245  D(70,53,79,78)       -176.3821         estimate D2E/DX2                !
 ! D246  D(70,53,79,80)          3.8467         estimate D2E/DX2                !
 ! D247  D(73,53,79,78)          4.3911         estimate D2E/DX2                !
 ! D248  D(73,53,79,80)       -175.3801         estimate D2E/DX2                !
 ! D249  D(50,75,77,49)          6.6678         estimate D2E/DX2                !
 ! D250  D(76,75,77,49)       -173.0444         estimate D2E/DX2                !
 ! D251  D(52,78,79,53)         -6.7073         estimate D2E/DX2                !
 ! D252  D(52,78,79,80)        173.0668         estimate D2E/DX2                !
 --------------------------------------------------------------------------------
 Trust Radius=3.00D-01 FncErr=1.00D-07 GrdErr=1.00D-06 EigMax=2.50D+02 EigMin=1.00D-04
 Number of steps in this run=    486 maximum allowed number of steps=    486.
 GradGradGradGradGradGradGradGradGradGradGradGradGradGradGradGradGradGrad

 Stoichiometry    C46H12F15N4OPtS2(1-)
 Framework group  C1[X(C46H12F15N4OPtS2)]
 Deg. of freedom   237
 Full point group                 C1      NOp   1
 Largest Abelian subgroup         C1      NOp   1
 Largest concise Abelian subgroup C1      NOp   1
                         Standard orientation:                         
 ---------------------------------------------------------------------
 Center     Atomic      Atomic             Coordinates (Angstroms)
 Number     Number       Type             X           Y           Z
 ---------------------------------------------------------------------
      1          6           0       -1.245394   -2.466041   -0.945976
      2          6           0        1.206029    2.799792   -0.231831
      3          6           0        3.494477    2.595013    0.278623
      4          6           0        2.798384    1.242264    0.247335
      5          6           0        2.721474   -1.109242    0.095763
      6          6           0        2.463211   -3.141974   -0.760686
      7          6           0        1.268000   -2.455942   -0.927016
      8          6           0       -1.226658    2.838373   -0.130724
      9          6           0       -2.586291    3.540802    0.093638
     10          6           0       -2.725388   -1.128594    0.063672
     11          6           0       -3.317750   -2.376320   -0.066166
     12          6           0       -2.810687    1.242649    0.284288
     13          1           0       -4.272952   -2.675030    0.307565
     14          1           0       -2.761911    4.594632    0.043832
     15          1           0        4.516334    2.777342    0.535447
     16          7           0        1.372577   -1.250258   -0.397829
     17          7           0       -1.382218   -1.251404   -0.406638
     18          7           0        1.384638    1.493732   -0.090795
     19          7           0       -1.408436    1.504513   -0.036058
     20          6           0        2.567335    3.516759   -0.067546
     21          1           0        2.738958    4.564327   -0.180309
     22          6           0        3.323235   -2.352512   -0.006241
     23          1           0        4.269536   -2.642839    0.393141
     24          6           0       -2.436458   -3.159463   -0.806773
     25          6           0       -3.514188    2.593268    0.371737
     26          1           0       -4.543767    2.756773    0.606313
     27          6           0        0.020449   -3.038677   -1.544149
     28          6           0       -3.365259    0.020832    0.482886
     29          6           0        3.352552    0.038026    0.508286
     30          6           0       -0.008250    3.472813   -0.413107
     31          6           0        4.694101   -0.086229    1.214191
     32          6           0        5.835180    0.277329    0.521667
     33          6           0        4.773750   -0.569387    2.532779
     34          6           0        7.086524    0.089532    1.106210
     35          6           0        6.021462   -0.638283    3.163790
     36          6           0        7.181742   -0.341404    2.436799
     37          6           0       -0.003009    4.928776   -0.875594
     38          6           0        0.331874    5.244009   -2.203911
     39          6           0       -0.335763    5.932809    0.025558
     40          6           0        0.276840    6.576198   -2.632948
     41          6           0       -0.269708    7.270461   -0.372472
     42          6           0        0.006415    7.592413   -1.708220
     43          6           0       -4.726337   -0.122840    1.136600
     44          6           0       -5.851171    0.227379    0.408551
     45          6           0       -4.835201   -0.610447    2.446655
     46          6           0       -7.115410    0.025765    0.958888
     47          6           0       -6.096275   -0.690983    3.044249
     48          6           0       -7.240217   -0.404498    2.287423
     49          6           0       -2.727089   -4.554510   -1.333667
     50          6           0       -2.828845   -6.502602   -2.742314
     51          1           0       -1.416088   -4.674381   -3.048111
     52          6           0        2.779808   -4.533421   -1.280694
     53          6           0        2.933250   -6.476780   -2.689636
     54          1           0        1.508144   -4.662872   -3.021342
     55          9           0        3.654732   -0.925578    3.204231
     56          9           0        6.107111   -0.982254    4.467999
     57          9           0        8.391963   -0.469082    3.016712
     58          9           0        8.201248    0.313284    0.382785
     59          9           0        5.726578    0.765203   -0.731482
     60          9           0        0.663052    4.266167   -3.077650
     61          9           0        0.473830    6.880322   -3.934815
     62          9           0        0.012204    8.882126   -2.102378
     63          9           0       -0.464440    8.249638    0.533924
     64          9           0       -0.675857    5.610953    1.290326
     65          9           0       -5.713691    0.714070   -0.842796
     66          9           0       -8.213261    0.235774    0.205890
     67          9           0       -8.463106   -0.542298    2.836857
     68          9           0       -6.210600   -1.035056    4.345552
     69          9           0       -3.729039   -0.958701    3.143322
     70          1           0        2.702325   -7.088425   -3.534868
     71          1           0       -2.573785   -7.113695   -3.581143
     72          8           0        0.032790   -3.959653   -2.404344
     73          6           0        2.263277   -5.107398   -2.401310
     74          6           0       -2.180182   -5.125292   -2.442857
     75          6           0       -3.775256   -6.837646   -1.821676
     76          1           0       -4.395297   -7.702616   -1.869471
     77         16           0       -3.853653   -5.644377   -0.530280
     78         16           0        3.900246   -5.612539   -0.454557
     79          6           0        3.863527   -6.803883   -1.749938
     80          1           0        4.493460   -7.662671   -1.786473
     81         78           0        0.011053    0.130959   -0.247748
 ---------------------------------------------------------------------
 Rotational constants (GHZ):           0.0271119           0.0241792           0.0155507
 General basis read from cards:  (5D, 7F)
 ======================================================================================================
                                       Pseudopotential Parameters
 ======================================================================================================
  Center     Atomic      Valence      Angular      Power
  Number     Number     Electrons     Momentum     of R      Exponent        Coefficient   SO-Coeffient
 ======================================================================================================
    1          6
                                   No pseudopotential on this center.
    2          6
                                   No pseudopotential on this center.
    3          6
                                   No pseudopotential on this center.
    4          6
                                   No pseudopotential on this center.
    5          6
                                   No pseudopotential on this center.
    6          6
                                   No pseudopotential on this center.
    7          6
                                   No pseudopotential on this center.
    8          6
                                   No pseudopotential on this center.
    9          6
                                   No pseudopotential on this center.
   10          6
                                   No pseudopotential on this center.
   11          6
                                   No pseudopotential on this center.
   12          6
                                   No pseudopotential on this center.
   13          1
                                   No pseudopotential on this center.
   14          1
                                   No pseudopotential on this center.
   15          1
                                   No pseudopotential on this center.
   16          7
                                   No pseudopotential on this center.
   17          7
                                   No pseudopotential on this center.
   18          7
                                   No pseudopotential on this center.
   19          7
                                   No pseudopotential on this center.
   20          6
                                   No pseudopotential on this center.
   21          1
                                   No pseudopotential on this center.
   22          6
                                   No pseudopotential on this center.
   23          1
                                   No pseudopotential on this center.
   24          6
                                   No pseudopotential on this center.
   25          6
                                   No pseudopotential on this center.
   26          1
                                   No pseudopotential on this center.
   27          6
                                   No pseudopotential on this center.
   28          6
                                   No pseudopotential on this center.
   29          6
                                   No pseudopotential on this center.
   30          6
                                   No pseudopotential on this center.
   31          6
                                   No pseudopotential on this center.
   32          6
                                   No pseudopotential on this center.
   33          6
                                   No pseudopotential on this center.
   34          6
                                   No pseudopotential on this center.
   35          6
                                   No pseudopotential on this center.
   36          6
                                   No pseudopotential on this center.
   37          6
                                   No pseudopotential on this center.
   38          6
                                   No pseudopotential on this center.
   39          6
                                   No pseudopotential on this center.
   40          6
                                   No pseudopotential on this center.
   41          6
                                   No pseudopotential on this center.
   42          6
                                   No pseudopotential on this center.
   43          6
                                   No pseudopotential on this center.
   44          6
                                   No pseudopotential on this center.
   45          6
                                   No pseudopotential on this center.
   46          6
                                   No pseudopotential on this center.
   47          6
                                   No pseudopotential on this center.
   48          6
                                   No pseudopotential on this center.
   49          6
                                   No pseudopotential on this center.
   50          6
                                   No pseudopotential on this center.
   51          1
                                   No pseudopotential on this center.
   52          6
                                   No pseudopotential on this center.
   53          6
                                   No pseudopotential on this center.
   54          1
                                   No pseudopotential on this center.
   55          9
                                   No pseudopotential on this center.
   56          9
                                   No pseudopotential on this center.
   57          9
                                   No pseudopotential on this center.
   58          9
                                   No pseudopotential on this center.
   59          9
                                   No pseudopotential on this center.
   60          9
                                   No pseudopotential on this center.
   61          9
                                   No pseudopotential on this center.
   62          9
                                   No pseudopotential on this center.
   63          9
                                   No pseudopotential on this center.
   64          9
                                   No pseudopotential on this center.
   65          9
                                   No pseudopotential on this center.
   66          9
                                   No pseudopotential on this center.
   67          9
                                   No pseudopotential on this center.
   68          9
                                   No pseudopotential on this center.
   69          9
                                   No pseudopotential on this center.
   70          1
                                   No pseudopotential on this center.
   71          1
                                   No pseudopotential on this center.
   72          8
                                   No pseudopotential on this center.
   73          6
                                   No pseudopotential on this center.
   74          6
                                   No pseudopotential on this center.
   75          6
                                   No pseudopotential on this center.
   76          1
                                   No pseudopotential on this center.
   77         16
                                   No pseudopotential on this center.
   78         16
                                   No pseudopotential on this center.
   79          6
                                   No pseudopotential on this center.
   80          1
                                   No pseudopotential on this center.
   81         78           18
                                      G and up 
                                                     1      728.9394056       -0.16192680    0.00000000
                                                     2      320.6567800    -1320.28738520    0.00000000
                                                     2       52.8680174     -298.31781350    0.00000000
                                                     2       12.0280128      -87.58370650    0.00000000
                                                     2        3.5238913       -8.14932740    0.00000000
                                      S - G
                                                     0      409.4437358        2.73342180    0.00000000
                                                     1      274.5419231       59.70243290    0.00000000
                                                     2      127.5658570      891.45895500    0.00000000
                                                     2       32.9036631      368.44676560    0.00000000
                                                     2        5.0593880      238.02630900    0.00000000
                                                     2        4.1506556     -107.05564540    0.00000000
                                      P - G
                                                     0      466.1728892        1.88785680    0.00000000
                                                     1      120.7888259       76.01386290    0.00000000
                                                     2       36.4118791      343.55111160    0.00000000
                                                     2        5.6985408      119.49117860    0.00000000
                                      D - G
                                                     0      249.5650763        2.93436780    0.00000000
                                                     1      126.6678585       59.33065710    0.00000000
                                                     2       63.1430586      452.44451940    0.00000000
                                                     2       17.9059470      210.47694790    0.00000000
                                                     2        4.2239373       58.62541120    0.00000000
                                      F - G
                                                     0      121.8158799        3.95342530    0.00000000
                                                     1       60.8757030       53.85551820    0.00000000
                                                     2       31.4767147      247.43051330    0.00000000
                                                     2        9.8811751      127.81879760    0.00000000
                                                     2        2.7319874       15.37720460    0.00000000
 ======================================================================================================
 There are  1384 symmetry adapted cartesian basis functions of A   symmetry.
 There are  1314 symmetry adapted basis functions of A   symmetry.
  1314 basis functions,  2351 primitive gaussians,  1384 cartesian basis functions
   255 alpha electrons      255 beta electrons
       nuclear repulsion energy     11651.4198478178 Hartrees.
 NAtoms=   81 NActive=   81 NUniq=   81 SFac= 1.00D+00 NAtFMM=   60 NAOKFM=T Big=T
 Integral buffers will be    131072 words long.
 Raffenetti 2 integral format.
 Two-electron integral symmetry is turned on.
 One-electron integrals computed using PRISM.
   1 Symmetry operations used in ECPInt.
 ECPInt:  NShTT=   74691 NPrTT=  410361 LenC2=   50720 LenP2D=  145124.
 LDataN:  DoStor=T MaxTD1= 6 Len=  172
 NBasis=  1314 RedAO= T EigKep=  1.17D-06  NBF=  1314
 NBsUse=  1295 1.00D-06 EigRej=  7.31D-07 NBFU=  1295
 Defaulting to unpruned grid for atomic number  78.
 ExpMin= 2.90D-02 ExpMax= 2.19D+04 ExpMxC= 3.30D+03 IAcc=3 IRadAn=         5 AccDes= 0.00D+00
 Harris functional with IExCor=  402 and IRadAn=       5 diagonalized for initial guess.
 HarFok:  IExCor=  402 AccDes= 0.00D+00 IRadAn=         5 IDoV= 1 UseB2=F ITyADJ=14
 ICtDFT=  3500011 ScaDFX=  1.000000  1.000000  1.000000  1.000000
 Defaulting to unpruned grid for atomic number  78.
 FoFCou: FMM=F IPFlag=           0 FMFlag=      100000 FMFlg1=        2001
         NFxFlg=           0 DoJE=T BraDBF=F KetDBF=T FulRan=T
         wScrn=  0.000000 ICntrl=       500 IOpCl=  0 I1Cent=   200000004 NGrid=           0
         NMat0=    1 NMatS0=      1 NMatT0=    0 NMatD0=    1 NMtDS0=    0 NMtDT0=    0
 Petite list used in FoFCou.
 Requested convergence on RMS density matrix=1.00D-08 within1000 cycles.
 Requested convergence on MAX density matrix=1.00D-06.
 Requested convergence on             energy=1.00D-06.
 No special actions if energy rises.
 Defaulting to unpruned grid for atomic number  78.
 Defaulting to unpruned grid for atomic number  78.
 Defaulting to unpruned grid for atomic number  78.
 Defaulting to unpruned grid for atomic number  78.
 Defaulting to unpruned grid for atomic number  78.
 Defaulting to unpruned grid for atomic number  78.
 Defaulting to unpruned grid for atomic number  78.
 Defaulting to unpruned grid for atomic number  78.
 Defaulting to unpruned grid for atomic number  78.
 Defaulting to unpruned grid for atomic number  78.
 Defaulting to unpruned grid for atomic number  78.
 Defaulting to unpruned grid for atomic number  78.
 Defaulting to unpruned grid for atomic number  78.
 Defaulting to unpruned grid for atomic number  78.
 Defaulting to unpruned grid for atomic number  78.
 Defaulting to unpruned grid for atomic number  78.
 EnCoef did     3 forward-backward iterations
 EnCoef did     2 forward-backward iterations
 Restarting incremental Fock formation.
 SCF Done:  E(RB3LYP) =  -4467.52331435     A.U. after   23 cycles
            NFock= 23  Conv=0.70D-08     -V/T= 2.0242

 **********************************************************************

            Population analysis using the SCF Density.

 **********************************************************************

 Orbital symmetries:
       Occupied  (A) (A) (A) (A) (A) (A) (A) (A) (A) (A) (A) (A)
                 (A) (A) (A) (A) (A) (A) (A) (A) (A) (A) (A) (A)
                 (A) (A) (A) (A) (A) (A) (A) (A) (A) (A) (A) (A)
                 (A) (A) (A) (A) (A) (A) (A) (A) (A) (A) (A) (A)
                 (A) (A) (A) (A) (A) (A) (A) (A) (A) (A) (A) (A)
                 (A) (A) (A) (A) (A) (A) (A) (A) (A) (A) (A) (A)
                 (A) (A) (A) (A) (A) (A) (A) (A) (A) (A) (A) (A)
                 (A) (A) (A) (A) (A) (A) (A) (A) (A) (A) (A) (A)
                 (A) (A) (A) (A) (A) (A) (A) (A) (A) (A) (A) (A)
                 (A) (A) (A) (A) (A) (A) (A) (A) (A) (A) (A) (A)
                 (A) (A) (A) (A) (A) (A) (A) (A) (A) (A) (A) (A)
                 (A) (A) (A) (A) (A) (A) (A) (A) (A) (A) (A) (A)
                 (A) (A) (A) (A) (A) (A) (A) (A) (A) (A) (A) (A)
                 (A) (A) (A) (A) (A) (A) (A) (A) (A) (A) (A) (A)
                 (A) (A) (A) (A) (A) (A) (A) (A) (A) (A) (A) (A)
                 (A) (A) (A) (A) (A) (A) (A) (A) (A) (A) (A) (A)
                 (A) (A) (A) (A) (A) (A) (A) (A) (A) (A) (A) (A)
                 (A) (A) (A) (A) (A) (A) (A) (A) (A) (A) (A) (A)
                 (A) (A) (A) (A) (A) (A) (A) (A) (A) (A) (A) (A)
                 (A) (A) (A) (A) (A) (A) (A) (A) (A) (A) (A) (A)
                 (A) (A) (A) (A) (A) (A) (A) (A) (A) (A) (A) (A)
                 (A) (A) (A)
       Virtual   (A) (A) (A) (A) (A) (A) (A) (A) (A) (A) (A) (A)
                 (A) (A) (A) (A) (A) (A) (A) (A) (A) (A) (A) (A)
                 (A) (A) (A) (A) (A) (A) (A) (A) (A) (A) (A) (A)
                 (A) (A) (A) (A) (A) (A) (A) (A) (A) (A) (A) (A)
                 (A) (A) (A) (A) (A) (A) (A) (A) (A) (A) (A) (A)
                 (A) (A) (A) (A) (A) (A) (A) (A) (A) (A) (A) (A)
                 (A) (A) (A) (A) (A) (A) (A) (A) (A) (A) (A) (A)
                 (A) (A) (A) (A) (A) (A) (A) (A) (A) (A) (A) (A)
                 (A) (A) (A) (A) (A) (A) (A) (A) (A) (A) (A) (A)
                 (A) (A) (A) (A) (A) (A) (A) (A) (A) (A) (A) (A)
                 (A) (A) (A) (A) (A) (A) (A) (A) (A) (A) (A) (A)
                 (A) (A) (A) (A) (A) (A) (A) (A) (A) (A) (A) (A)
                 (A) (A) (A) (A) (A) (A) (A) (A) (A) (A) (A) (A)
                 (A) (A) (A) (A) (A) (A) (A) (A) (A) (A) (A) (A)
                 (A) (A) (A) (A) (A) (A) (A) (A) (A) (A) (A) (A)
                 (A) (A) (A) (A) (A) (A) (A) (A) (A) (A) (A) (A)
                 (A) (A) (A) (A) (A) (A) (A) (A) (A) (A) (A) (A)
                 (A) (A) (A) (A) (A) (A) (A) (A) (A) (A) (A) (A)
                 (A) (A) (A) (A) (A) (A) (A) (A) (A) (A) (A) (A)
                 (A) (A) (A) (A) (A) (A) (A) (A) (A) (A) (A) (A)
                 (A) (A) (A) (A) (A) (A) (A) (A) (A) (A) (A) (A)
                 (A) (A) (A) (A) (A) (A) (A) (A) (A) (A) (A) (A)
                 (A) (A) (A) (A) (A) (A) (A) (A) (A) (A) (A) (A)
                 (A) (A) (A) (A) (A) (A) (A) (A) (A) (A) (A) (A)
                 (A) (A) (A) (A) (A) (A) (A) (A) (A) (A) (A) (A)
                 (A) (A) (A) (A) (A) (A) (A) (A) (A) (A) (A) (A)
                 (A) (A) (A) (A) (A) (A) (A) (A) (A) (A) (A) (A)
                 (A) (A) (A) (A) (A) (A) (A) (A) (A) (A) (A) (A)
                 (A) (A) (A) (A) (A) (A) (A) (A) (A) (A) (A) (A)
                 (A) (A) (A) (A) (A) (A) (A) (A) (A) (A) (A) (A)
                 (A) (A) (A) (A) (A) (A) (A) (A) (A) (A) (A) (A)
                 (A) (A) (A) (A) (A) (A) (A) (A) (A) (A) (A) (A)
                 (A) (A) (A) (A) (A) (A) (A) (A) (A) (A) (A) (A)
                 (A) (A) (A) (A) (A) (A) (A) (A) (A) (A) (A) (A)
                 (A) (A) (A) (A) (A) (A) (A) (A) (A) (A) (A) (A)
                 (A) (A) (A) (A) (A) (A) (A) (A) (A) (A) (A) (A)
                 (A) (A) (A) (A) (A) (A) (A) (A) (A) (A) (A) (A)
                 (A) (A) (A) (A) (A) (A) (A) (A) (A) (A) (A) (A)
                 (A) (A) (A) (A) (A) (A) (A) (A) (A) (A) (A) (A)
                 (A) (A) (A) (A) (A) (A) (A) (A) (A) (A) (A) (A)
                 (A) (A) (A) (A) (A) (A) (A) (A) (A) (A) (A) (A)
                 (A) (A) (A) (A) (A) (A) (A) (A) (A) (A) (A) (A)
                 (A) (A) (A) (A) (A) (A) (A) (A) (A) (A) (A) (A)
                 (A) (A) (A) (A) (A) (A) (A) (A) (A) (A) (A) (A)
                 (A) (A) (A) (A) (A) (A) (A) (A) (A) (A) (A) (A)
                 (A) (A) (A) (A) (A) (A) (A) (A) (A) (A) (A) (A)
                 (A) (A) (A) (A) (A) (A) (A) (A) (A) (A) (A) (A)
                 (A) (A) (A) (A) (A) (A) (A) (A) (A) (A) (A) (A)
                 (A) (A) (A) (A) (A) (A) (A) (A) (A) (A) (A) (A)
                 (A) (A) (A) (A) (A) (A) (A) (A) (A) (A) (A) (A)
                 (A) (A) (A) (A) (A) (A) (A) (A) (A) (A) (A) (A)
                 (A) (A) (A) (A) (A) (A) (A) (A) (A) (A) (A) (A)
                 (A) (A) (A) (A) (A) (A) (A) (A) (A) (A) (A) (A)
                 (A) (A) (A) (A) (A) (A) (A) (A) (A) (A) (A) (A)
                 (A) (A) (A) (A) (A) (A) (A) (A) (A) (A) (A) (A)
                 (A) (A) (A) (A) (A) (A) (A) (A) (A) (A) (A) (A)
                 (A) (A) (A) (A) (A) (A) (A) (A) (A) (A) (A) (A)
                 (A) (A) (A) (A) (A) (A) (A) (A) (A) (A) (A) (A)
                 (A) (A) (A) (A) (A) (A) (A) (A) (A) (A) (A) (A)
                 (A) (A) (A) (A) (A) (A) (A) (A) (A) (A) (A) (A)
                 (A) (A) (A) (A) (A) (A) (A) (A) (A) (A) (A) (A)
                 (A) (A) (A) (A) (A) (A) (A) (A) (A) (A) (A) (A)
                 (A) (A) (A) (A) (A) (A) (A) (A) (A) (A) (A) (A)
                 (A) (A) (A) (A) (A) (A) (A) (A) (A) (A) (A) (A)
                 (A) (A) (A) (A) (A) (A) (A) (A) (A) (A) (A) (A)
                 (A) (A) (A) (A) (A) (A) (A) (A) (A) (A) (A) (A)
                 (A) (A) (A) (A) (A) (A) (A) (A) (A) (A) (A) (A)
                 (A) (A) (A) (A) (A) (A) (A) (A) (A) (A) (A) (A)
                 (A) (A) (A) (A) (A) (A) (A) (A) (A) (A) (A) (A)
                 (A) (A) (A) (A) (A) (A) (A) (A) (A) (A) (A) (A)
                 (A) (A) (A) (A) (A) (A) (A) (A) (A) (A) (A) (A)
                 (A) (A) (A) (A) (A) (A) (A) (A) (A) (A) (A) (A)
                 (A) (A) (A) (A) (A) (A) (A) (A) (A) (A) (A) (A)
                 (A) (A) (A) (A) (A) (A) (A) (A) (A) (A) (A) (A)
                 (A) (A) (A) (A) (A) (A) (A) (A) (A) (A) (A) (A)
                 (A) (A) (A) (A) (A) (A) (A) (A) (A) (A) (A) (A)
                 (A) (A) (A) (A) (A) (A) (A) (A) (A) (A) (A) (A)
                 (A) (A) (A) (A) (A) (A) (A) (A) (A) (A) (A) (A)
                 (A) (A) (A) (A) (A) (A) (A) (A) (A) (A) (A) (A)
                 (A) (A) (A) (A) (A) (A) (A) (A) (A) (A) (A) (A)
                 (A) (A) (A) (A) (A) (A) (A) (A) (A) (A) (A) (A)
                 (A) (A) (A) (A) (A) (A) (A) (A) (A) (A) (A) (A)
                 (A) (A) (A) (A) (A) (A) (A) (A) (A) (A) (A) (A)
                 (A) (A) (A) (A) (A) (A) (A) (A) (A) (A) (A) (A)
                 (A) (A) (A) (A) (A) (A) (A) (A) (A) (A) (A) (A)
                 (A) (A) (A) (A) (A) (A) (A) (A) (A) (A) (A) (A)
                 (A) (A) (A) (A) (A) (A) (A) (A)
 The electronic state is 1-A.
 Alpha  occ. eigenvalues --  -88.81028 -88.80986 -24.70164 -24.70154 -24.70062
 Alpha  occ. eigenvalues --  -24.69629 -24.69600 -24.69548 -24.69497 -24.69497
 Alpha  occ. eigenvalues --  -24.69440 -24.68803 -24.68763 -24.68685 -24.68576
 Alpha  occ. eigenvalues --  -24.68440 -24.68429 -19.04688 -14.29639 -14.29362
 Alpha  occ. eigenvalues --  -14.28794 -14.28448 -10.26699 -10.26581 -10.26577
 Alpha  occ. eigenvalues --  -10.26159 -10.26085 -10.26032 -10.26029 -10.26009
 Alpha  occ. eigenvalues --  -10.25964 -10.25908 -10.25688 -10.25614 -10.25563
 Alpha  occ. eigenvalues --  -10.25439 -10.25431 -10.19898 -10.18615 -10.18365
 Alpha  occ. eigenvalues --  -10.18354 -10.16797 -10.16653 -10.16264 -10.16259
 Alpha  occ. eigenvalues --  -10.14738 -10.14641 -10.14059 -10.14023 -10.13801
 Alpha  occ. eigenvalues --  -10.13712 -10.13683 -10.13515 -10.13413 -10.13305
 Alpha  occ. eigenvalues --  -10.13265 -10.13260 -10.13221 -10.12991 -10.12886
 Alpha  occ. eigenvalues --  -10.11567 -10.11531 -10.11464 -10.11415 -10.09787
 Alpha  occ. eigenvalues --  -10.09655 -10.09649 -10.09623  -7.88268  -7.88225
 Alpha  occ. eigenvalues --   -5.84655  -5.84612  -5.84272  -5.84228  -5.83868
 Alpha  occ. eigenvalues --   -5.83826  -3.86033  -2.08962  -2.08786  -2.04504
 Alpha  occ. eigenvalues --   -1.21952  -1.21934  -1.21858  -1.20981  -1.20958
 Alpha  occ. eigenvalues --   -1.20873  -1.20390  -1.20345  -1.20288  -1.19601
 Alpha  occ. eigenvalues --   -1.19573  -1.19457  -1.19192  -1.19087  -1.19071
[...]
 Alpha virt. eigenvalues --    0.71930   0.72674   0.72750   0.72769   0.73670
 Alpha virt. eigenvalues --    0.74440   0.74452   0.74840   0.75146   0.75779
 Alpha virt. eigenvalues --    0.76090   0.76629   0.76728   0.76857   0.77320
 Alpha virt. eigenvalues --    0.77421   0.77591   0.77944   0.78287   0.78456
 Alpha virt. eigenvalues --    0.78578   0.79035   0.79376   0.79498   0.79609
 Alpha virt. eigenvalues --    0.80110   0.80283   0.80600   0.80876   0.81593
 Alpha virt. eigenvalues --    0.82135   0.82402   0.82544   0.83193   0.83751
 Alpha virt. eigenvalues --    0.83754   0.84363   0.85121   0.85348   0.85472
 Alpha virt. eigenvalues --    0.85638   0.85923   0.86132   0.86453   0.86649
 Alpha virt. eigenvalues --    0.87051   0.87121   0.87705   0.88601   0.88898
 Alpha virt. eigenvalues --    0.89094   0.89137   0.89900   0.89947   0.90202
 Alpha virt. eigenvalues --    0.90333   0.91019   0.91373   0.91399   0.91462
 Alpha virt. eigenvalues --    0.92007   0.92026   0.92410   0.92990   0.93011
 Alpha virt. eigenvalues --    0.93453   0.93542   0.94012   0.94121   0.95093
 Alpha virt. eigenvalues --    0.95130   0.95588   0.95923   0.96010   0.96279
 Alpha virt. eigenvalues --    0.96520   0.96833   0.96926   0.97058   0.97184
 Alpha virt. eigenvalues --    0.97580   0.98103   0.98239   0.98847   0.99264
 Alpha virt. eigenvalues --    0.99675   0.99681   0.99927   1.00217   1.00503
 Alpha virt. eigenvalues --    1.00753   1.01081   1.01570   1.01578   1.01749
 Alpha virt. eigenvalues --    1.01896   1.02403   1.02521   1.02635   1.03205
 Alpha virt. eigenvalues --    1.03477   1.03608   1.03955   1.04168   1.04704
 Alpha virt. eigenvalues --    1.05008   1.05893   1.05970   1.06039   1.06713
 Alpha virt. eigenvalues --    1.06963   1.07728   1.08158   1.08388   1.09487
 Alpha virt. eigenvalues --    1.09962   1.10884   1.11671   1.11872   1.12267
 Alpha virt. eigenvalues --    1.12603   1.12932   1.13283   1.13597   1.14470
 Alpha virt. eigenvalues --    1.14763   1.16002   1.16564   1.17096   1.17162
 Alpha virt. eigenvalues --    1.17546   1.17563   1.17991   1.19298   1.19568
 Alpha virt. eigenvalues --    1.19677   1.20358   1.20678   1.21185   1.21191
 Alpha virt. eigenvalues --    1.21337   1.21880   1.21997   1.22019   1.22307
 Alpha virt. eigenvalues --    1.22510   1.22735   1.23001   1.23019   1.23102
 Alpha virt. eigenvalues --    1.23480   1.24311   1.24709   1.25046   1.25580
 Alpha virt. eigenvalues --    1.25763   1.25856   1.26531   1.26542   1.27857
 Alpha virt. eigenvalues --    1.28315   1.28566   1.28615   1.29043   1.29283
 Alpha virt. eigenvalues --    1.29299   1.29871   1.30343   1.30784   1.30972
 Alpha virt. eigenvalues --    1.31336   1.31361   1.31648   1.32150   1.32394
 Alpha virt. eigenvalues --    1.32754   1.33482   1.33941   1.34144   1.34392
 Alpha virt. eigenvalues --    1.34473   1.34573   1.34601   1.35561   1.35633
 Alpha virt. eigenvalues --    1.35817   1.35926   1.36021   1.36532   1.36631
 Alpha virt. eigenvalues --    1.37176   1.37501   1.37616   1.37788   1.38105
 Alpha virt. eigenvalues --    1.38498   1.38511   1.38797   1.39225   1.39237
 Alpha virt. eigenvalues --    1.39762   1.39976   1.40352   1.40979   1.41356
 Alpha virt. eigenvalues --    1.42003   1.42821   1.43129   1.43337   1.43541
 Alpha virt. eigenvalues --    1.43751   1.43855   1.44557   1.45038   1.45126
 Alpha virt. eigenvalues --    1.45696   1.45702   1.45813   1.46399   1.46456
 Alpha virt. eigenvalues --    1.47047   1.47541   1.48725   1.48786   1.49268
 Alpha virt. eigenvalues --    1.49619   1.50709   1.50828   1.51305   1.51959
 Alpha virt. eigenvalues --    1.51996   1.52384   1.52397   1.53012   1.53517
 Alpha virt. eigenvalues --    1.53543   1.54846   1.55107   1.56193   1.56744
 Alpha virt. eigenvalues --    1.57803   1.58268   1.58561   1.59897   1.60515
 Alpha virt. eigenvalues --    1.61546   1.63149   1.63367   1.63405   1.64321
 Alpha virt. eigenvalues --    1.65170   1.65459   1.65877   1.65935   1.66281
 Alpha virt. eigenvalues --    1.66357   1.66422   1.66822   1.66945   1.67046
 Alpha virt. eigenvalues --    1.67072   1.67285   1.67616   1.67831   1.68080
 Alpha virt. eigenvalues --    1.68109   1.68618   1.68802   1.69030   1.69220
 Alpha virt. eigenvalues --    1.69271   1.69869   1.69952   1.70133   1.70529
 Alpha virt. eigenvalues --    1.70576   1.71454   1.71609   1.72009   1.72417
 Alpha virt. eigenvalues --    1.73166   1.73172   1.73673   1.73674   1.73849
 Alpha virt. eigenvalues --    1.73984   1.74071   1.74096   1.74344   1.74787
 Alpha virt. eigenvalues --    1.75479   1.75690   1.75811   1.75916   1.76493
 Alpha virt. eigenvalues --    1.76583   1.76785   1.77217   1.77389   1.77407
 Alpha virt. eigenvalues --    1.77582   1.77896   1.78285   1.78537   1.78720
 Alpha virt. eigenvalues --    1.78994   1.78997   1.79225   1.79500   1.79661
 Alpha virt. eigenvalues --    1.79722   1.80001   1.80362   1.81654   1.82013
 Alpha virt. eigenvalues --    1.82024   1.82638   1.83143   1.83160   1.83341
 Alpha virt. eigenvalues --    1.83548   1.83702   1.83726   1.83931   1.84169
 Alpha virt. eigenvalues --    1.84198   1.84236   1.84416   1.84617   1.84676
 Alpha virt. eigenvalues --    1.84753   1.85342   1.85357   1.85899   1.85987
 Alpha virt. eigenvalues --    1.86134   1.86300   1.86733   1.87022   1.87320
 Alpha virt. eigenvalues --    1.87479   1.87706   1.87873   1.88169   1.88185
 Alpha virt. eigenvalues --    1.88606   1.88711   1.88970   1.89067   1.89173
 Alpha virt. eigenvalues --    1.89287   1.89657   1.89708   1.90151   1.90485
 Alpha virt. eigenvalues --    1.90546   1.90734   1.91191   1.91286   1.92605
 Alpha virt. eigenvalues --    1.93075   1.93109   1.93304   1.93377   1.93562
 Alpha virt. eigenvalues --    1.93634   1.93848   1.93967   1.94191   1.94620
 Alpha virt. eigenvalues --    1.94740   1.95137   1.95335   1.95425   1.96033
 Alpha virt. eigenvalues --    1.96225   1.96907   1.97634   1.97880   1.98182
 Alpha virt. eigenvalues --    1.98554   1.98598   1.99110   1.99571   1.99815
 Alpha virt. eigenvalues --    1.99990   2.00300   2.00438   2.00709   2.01221
 Alpha virt. eigenvalues --    2.01290   2.01567   2.02869   2.02948   2.03462
 Alpha virt. eigenvalues --    2.03882   2.04451   2.04939   2.05064   2.05570
 Alpha virt. eigenvalues --    2.05846   2.06528   2.06873   2.06938   2.07322
 Alpha virt. eigenvalues --    2.07502   2.07686   2.07836   2.08657   2.08752
 Alpha virt. eigenvalues --    2.09701   2.10027   2.10764   2.11009   2.11971
 Alpha virt. eigenvalues --    2.13191   2.13530   2.13975   2.15039   2.15172
 Alpha virt. eigenvalues --    2.15517   2.15824   2.16066   2.16198   2.16689
 Alpha virt. eigenvalues --    2.17240   2.17467   2.17943   2.18055   2.18722
 Alpha virt. eigenvalues --    2.19818   2.20552   2.20720   2.21016   2.21278
 Alpha virt. eigenvalues --    2.21341   2.21557   2.22019   2.22357   2.23559
 Alpha virt. eigenvalues --    2.23816   2.25514   2.26102   2.26259   2.26881
 Alpha virt. eigenvalues --    2.26888   2.27036   2.27075   2.27659   2.27918
 Alpha virt. eigenvalues --    2.27941   2.28409   2.28492   2.28797   2.28899
 Alpha virt. eigenvalues --    2.29184   2.29217   2.29385   2.29581   2.29589
 Alpha virt. eigenvalues --    2.30170   2.30602   2.30832   2.31062   2.32414
 Alpha virt. eigenvalues --    2.32599   2.33024   2.33060   2.33416   2.33628
 Alpha virt. eigenvalues --    2.34040   2.34965   2.35368   2.35635   2.36105
 Alpha virt. eigenvalues --    2.36167   2.36520   2.37282   2.37594   2.38314
 Alpha virt. eigenvalues --    2.38352   2.38717   2.38748   2.38962   2.39191
 Alpha virt. eigenvalues --    2.39680   2.40242   2.40573   2.40921   2.41304
 Alpha virt. eigenvalues --    2.41536   2.42191   2.42686   2.42933   2.43657
 Alpha virt. eigenvalues --    2.43685   2.44446   2.44642   2.45185   2.45415
 Alpha virt. eigenvalues --    2.45743   2.46072   2.46319   2.46378   2.46961
 Alpha virt. eigenvalues --    2.47228   2.47708   2.48409   2.48706   2.48965
 Alpha virt. eigenvalues --    2.51118   2.51433   2.51733   2.51962   2.54057
 Alpha virt. eigenvalues --    2.54291   2.54375   2.54708   2.55060   2.55175
 Alpha virt. eigenvalues --    2.55925   2.56461   2.56805   2.57038   2.57372
 Alpha virt. eigenvalues --    2.58681   2.59519   2.59663   2.59742   2.59921
 Alpha virt. eigenvalues --    2.60022   2.60234   2.60241   2.60622   2.61195
 Alpha virt. eigenvalues --    2.61257   2.61469   2.61709   2.62250   2.62403
 Alpha virt. eigenvalues --    2.62653   2.63430   2.63457   2.64219   2.64289
 Alpha virt. eigenvalues --    2.65103   2.65166   2.66144   2.66445   2.66607
 Alpha virt. eigenvalues --    2.66806   2.66978   2.68141   2.68347   2.68613
 Alpha virt. eigenvalues --    2.69176   2.69203   2.70613   2.71455   2.71715
 Alpha virt. eigenvalues --    2.72206   2.73062   2.74242   2.75287   2.75507
 Alpha virt. eigenvalues --    2.76072   2.77053   2.77573   2.77593   2.78147
 Alpha virt. eigenvalues --    2.78676   2.79027   2.79217   2.80459   2.80867
 Alpha virt. eigenvalues --    2.81187   2.82066   2.82302   2.83083   2.83239
 Alpha virt. eigenvalues --    2.84617   2.86144   2.86312   2.86915   2.90020
 Alpha virt. eigenvalues --    2.91296   2.91694   2.93573   2.94498   2.94683
 Alpha virt. eigenvalues --    2.95544   2.96286   2.97837   2.98346   2.99243
 Alpha virt. eigenvalues --    3.00818   3.02060   3.02722   3.02973   3.04741
 Alpha virt. eigenvalues --    3.04769   3.05492   3.05675   3.05951   3.08782
 Alpha virt. eigenvalues --    3.09559   3.11781   3.12034   3.12044   3.12471
 Alpha virt. eigenvalues --    3.12568   3.13360   3.13592   3.15045   3.16232
 Alpha virt. eigenvalues --    3.16877   3.19777   3.20583   3.21065   3.21793
 Alpha virt. eigenvalues --    3.22494   3.22679   3.23803   3.25671   3.26177
 Alpha virt. eigenvalues --    3.27027   3.27597   3.28461   3.29022   3.29514
 Alpha virt. eigenvalues --    3.29705   3.29761   3.30833   3.32009   3.32029
 Alpha virt. eigenvalues --    3.34400   3.34465   3.36881   3.37317   3.39968
 Alpha virt. eigenvalues --    3.40417   3.40454   3.41609   3.42143   3.42515
 Alpha virt. eigenvalues --    3.42890   3.43657   3.46543   3.46940   3.47040
 Alpha virt. eigenvalues --    3.50377   3.50823   3.51317   3.52257   3.55104
 Alpha virt. eigenvalues --    3.71169   3.72262   3.73291   3.73511   3.74013
 Alpha virt. eigenvalues --    3.86267   3.86715   3.86888   3.87885  21.04792
          Condensed to atoms (all electrons):
 Mulliken charges:
               1
     1  C   -0.188199
     2  C    0.266378
     3  C   -0.039386
     4  C   -0.011457
     5  C    0.050987
     6  C    0.994637
     7  C   -0.188398
     8  C    0.266312
     9  C   -0.121367
    10  C    0.050771
    11  C    0.105692
    12  C   -0.011411
    13  H    0.121289
    14  H    0.114361
    15  H    0.117046
    16  N   -0.002936
    17  N   -0.002995
    18  N   -0.036220
    19  N   -0.036265
    20  C   -0.121316
    21  H    0.114360
    22  C    0.105648
    23  H    0.121290
    24  C    0.994684
    25  C   -0.039461
    26  H    0.117047
    27  C   -0.443965
    28  C   -0.044656
    29  C   -0.044620
    30  C   -0.040957
    31  C   -0.721018
    32  C    0.219337
    33  C    0.172239
    34  C    0.259213
    35  C    0.308580
    36  C    0.513829
    37  C   -0.582810
    38  C    0.043815
    39  C    0.028285
    40  C    0.411403
    41  C    0.375356
    42  C    0.446013
    43  C   -0.720915
    44  C    0.219199
    45  C    0.172130
    46  C    0.259237
    47  C    0.308732
    48  C    0.513722
    49  C   -0.671252
    50  C   -0.318080
    51  H    0.164975
    52  C   -0.671698
    53  C   -0.318206
    54  H    0.164983
    55  F   -0.277792
    56  F   -0.351084
    57  F   -0.351947
    58  F   -0.351466
    59  F   -0.275762
    60  F   -0.278237
    61  F   -0.355324
    62  F   -0.350850
    63  F   -0.354221
    64  F   -0.278660
    65  F   -0.275752
    66  F   -0.351470
    67  F   -0.351947
    68  F   -0.351082
    69  F   -0.277777
    70  H    0.120504
    71  H    0.120503
    72  O   -0.561289
    73  C    0.329103
    74  C    0.328446
    75  C   -0.116869
    76  H    0.142331
    77  S    0.020371
    78  S    0.020332
    79  C   -0.116766
    80  H    0.142332
    81  Pt   0.660409
 Sum of Mulliken charges =  -1.00000
 Mulliken charges with hydrogens summed into heavy atoms:
               1
     1  C   -0.188199
     2  C    0.266378
     3  C    0.077660
     4  C   -0.011457
     5  C    0.050987
     6  C    0.994637
     7  C   -0.188398
     8  C    0.266312
     9  C   -0.007007
    10  C    0.050771
    11  C    0.226981
    12  C   -0.011411
    16  N   -0.002936
    17  N   -0.002995
    18  N   -0.036220
    19  N   -0.036265
    20  C   -0.006956
    22  C    0.226937
    24  C    0.994684
    25  C    0.077586
    27  C   -0.443965
    28  C   -0.044656
    29  C   -0.044620
    30  C   -0.040957
    31  C   -0.721018
    32  C    0.219337
    33  C    0.172239
    34  C    0.259213
    35  C    0.308580
    36  C    0.513829
    37  C   -0.582810
    38  C    0.043815
    39  C    0.028285
    40  C    0.411403
    41  C    0.375356
    42  C    0.446013
    43  C   -0.720915
    44  C    0.219199
    45  C    0.172130
    46  C    0.259237
    47  C    0.308732
    48  C    0.513722
    49  C   -0.671252
    50  C   -0.197577
    52  C   -0.671698
    53  C   -0.197702
    55  F   -0.277792
    56  F   -0.351084
    57  F   -0.351947
    58  F   -0.351466
    59  F   -0.275762
    60  F   -0.278237
    61  F   -0.355324
    62  F   -0.350850
    63  F   -0.354221
    64  F   -0.278660
    65  F   -0.275752
    66  F   -0.351470
    67  F   -0.351947
    68  F   -0.351082
    69  F   -0.277777
    72  O   -0.561289
    73  C    0.494086
    74  C    0.493422
    75  C    0.025462
    77  S    0.020371
    78  S    0.020332
    79  C    0.025566
    81  Pt   0.660409
 Electronic spatial extent (au):  <R**2>=          66927.5121
 Charge=             -1.0000 electrons
 Dipole moment (field-independent basis, Debye):
    X=              0.0003    Y=              3.9560    Z=              0.8459  Tot=              4.0454
 Quadrupole moment (field-independent basis, Debye-Ang):
   XX=           -500.5515   YY=           -486.6905   ZZ=           -452.5856
   XY=              0.0020   XZ=             -0.0020   YZ=             -1.6600
 Traceless Quadrupole moment (field-independent basis, Debye-Ang):
   XX=            -20.6090   YY=             -6.7480   ZZ=             27.3569
   XY=              0.0020   XZ=             -0.0020   YZ=             -1.6600
 Octapole moment (field-independent basis, Debye-Ang**2):
  XXX=              0.0432  YYY=            -43.7017  ZZZ=            -15.8856  XYY=             -0.0388
  XXY=            165.6378  XXZ=            -16.7060  XZZ=              0.0081  YZZ=             26.9839
  YYZ=             23.5962  XYZ=             -0.0672
 Hexadecapole moment (field-independent basis, Debye-Ang**3):
 XXXX=         -49413.6900 YYYY=         -42082.8935 ZZZZ=          -4067.8921 XXXY=              0.6868
 XXXZ=             -0.0726 YYYX=             -0.4173 YYYZ=            127.5979 ZZZX=             -0.0389
 ZZZY=            -35.5872 XXYY=         -13284.0735 XXZZ=          -8615.7234 YYZZ=          -7612.1506
 XXYZ=           -179.2880 YYXZ=              0.0144 ZZXY=             -0.1193
 N-N= 1.158779021021D+04 E-N=-3.369075581080D+04  KE= 4.362561190938D+03
 Unable to Open any file for archive entry.
 1\1\GINC-CCNN578\FOpt\RB3LYP\GenECP\C46H12F15N4O1Pt1S2(1-)\CPI\21-Oct-
 2021\0\\# opt b3lyp/genecp geom=connectivity scf=maxcyc=1000\\title\\-
 1,1\C,-1.2966407037,-2.5914387683,-0.764136206\C,1.2806705084,2.935847
 3378,-0.0540625408\C,3.5048658743,2.5989194504,0.177222454\C,2.8140479
 592,1.3366467996,0.0687770099\C,2.7672366215,-1.1484875499,-0.13802864
 27\C,2.4779212339,-3.3501551933,-0.6227157568\C,1.2340270951,-2.625232
 6835,-0.7505892608\C,-1.20227725,2.9689389535,-0.0668319331\C,-2.47255
 08222,3.649076152,0.0584997812\C,-2.7962619195,-1.0743037694,-0.167326
 0943\C,-3.4758395447,-2.313804404,-0.2618639168\C,-2.7789360868,1.4111
 913541,0.0397416075\H,-4.5336105715,-2.464623992,-0.102048908\H,-2.604
 7447264,4.72112495,0.0975100534\H,4.5723745301,2.7172641096,0.29912739
 5\N,1.4240886217,-1.3116199303,-0.4227840995\N,-1.4550184242,-1.273229
 0678,-0.4379245871\N,1.4584152057,1.5769854737,-0.0791042616\N,-1.4159
 199553,1.6152980865,-0.0940608547\C,2.5672690809,3.5819102643,0.084328
 4143\H,2.7275926153,4.6500644997,0.1246859155\C,3.4144160741,-2.405736
 8083,-0.2252460281\H,4.4660210028,-2.5847042927,-0.0541746335\C,-2.560
 7447954,-3.2828704469,-0.6497361364\C,-3.4369317887,2.6914367854,0.141
 4400712\H,-4.5021027835,2.8382066304,0.2523876723\C,-0.0367418342,-3.1
 879261442,-1.1885986473\C,-3.4116372869,0.176405055,0.0533044837\C,3.4
 134204722,0.085429177,0.088954609\C,0.0480034293,3.6023954441,-0.08817
 24777\C,4.891893056,0.0346161333,0.3228940326\C,5.8093643029,0.0839648
 957,-0.7325168816\C,5.4264328581,-0.0769077594,1.6111027232\C,7.186804
 9345,0.030493091,-0.5253594671\C,6.7995158062,-0.1333800702,1.84579589
 89\C,7.6828145187,-0.0802555636,0.7709679101\C,0.0678802147,5.09778270
 94,-0.0779358203\C,0.0839322992,5.8404060709,-1.2651123304\C,0.0715236
 933,5.8337909265,1.1134982852\C,0.1025682512,7.2345001708,-1.275640991
 2\C,0.0900275285,7.2276485314,1.1321601581\C,0.1056177087,7.9303620064
 ,-0.0697726951\C,-4.8932977261,0.1650185098,0.2718186963\C,-5.79808001
 24,0.2396430673,-0.7930174333\C,-5.4440141402,0.0669152932,1.554293649
 8\C,-7.1785424328,0.2228925317,-0.6002378894\C,-6.8204841185,0.0470240
 935,1.7746494131\C,-7.6908070567,0.1245281174,0.6907537851\C,-2.912274
 732,-4.6971732786,-0.783363232\C,-3.1822429934,-6.9304310589,-1.462012
 989\H,-1.7084692327,-5.5225041612,-2.3611857696\C,2.7929064095,-4.7734
 089159,-0.7524007386\C,3.0102182033,-7.013403097,-1.42775094\H,1.58426
 74287,-5.5669591883,-2.3427756837\F,4.6111583606,-0.1301331114,2.67668
 61083\F,7.2783711687,-0.2370540361,3.097893006\F,9.0076980356,-0.13112
 03566,0.9837836808\F,8.0399850299,0.0861462704,-1.5631217876\F,5.37505
 87651,0.193418323,-1.9983900651\F,0.0817107956,5.2124831589,-2.4521431
 125\F,0.1176099725,7.9133090735,-2.4365497221\F,0.1235122349,9.2732342
 784,-0.065712313\F,0.0929846015,7.9000047257,2.2971393933\F,0.05692002
 2,5.1990095387,2.2972889477\F,-5.3478468937,0.3382977095,-2.0542075429
 \F,-8.0190744345,0.3020730749,-1.6467566761\F,-9.0187209142,0.10897385
 48,0.8897447337\F,-7.3149563225,-0.0446808573,3.0215992121\F,-4.641591
 6185,-0.0088290059,2.6282349441\H,2.7893464496,-7.8952246372,-2.020237
 5995\H,-2.9787451098,-7.8177480303,-2.0525137807\O,-0.0465625346,-4.21
 0610309,-1.9040609233\C,2.3562547575,-5.7589139307,-1.6129245984\C,-2.
 4930389531,-5.6938490915,-1.6396694716\C,-4.126738919,-6.887155307,-0.
 4694839358\H,-4.7787803743,-7.6786013083,-0.1245327737\S,-4.1817363796
 ,-5.3229968028,0.2742107444\S,4.0338528411,-5.432493045,0.3187293238\C
 ,3.9449856861,-6.9949383847,-0.425291411\H,4.5719634241,-7.8033690867,
 -0.0733326621\Pt,0.0030311692,0.1551606149,-0.2771581215\\Version=ES64
 L-G16RevC.01\State=1-A\HF=-4467.6624433\RMSD=2.554e-09\RMSF=2.369e-06\
 Dipole=0.0182228,1.5347905,0.4210091\Quadrupole=-15.3190078,-4.7962148
 ,20.1152226,0.1550224,-0.2229382,-2.6670252\PG=C01 [X(C46H12F15N4O1Pt1
 S2)]\\@
 The archive entry for this job was punched.


 IF NO USE IS MADE OF THE LABOR OF PAST AGES,
 THE WORLD MUST REMAIN ALWAYS IN THE INFANCY OF KNOWLEDGE.

                          -- CICERO
 Job cpu time:       6 days  5 hours 39 minutes 11.1 seconds.
 Elapsed time:       0 days  9 hours 21 minutes 53.8 seconds.
 File lengths (MBytes):  RWF=   1060 Int=      0 D2E=      0 Chk=    157 Scr=      1
 Normal termination of Gaussian 16 at Thu Oct 21 01:08:35 2021.
