 Entering Gaussian System, Link 0=/local/apl/lx/g16c01/g16/._.g16
 Initial command:
 /local/apl/lx/g16c01/g16/l1.exe "/work/users/cpi/4776083.cccms1/Gau-162987.inp" -scrdir="/work/users/cpi/4776083.cccms1/"
 Default CPUs for threads: 0,1,2,3,4,5,6,7,8,9,10,11,12,13,14,15,16,17
 Default is to use a total of  18 processors:
                               18 via shared-memory
                                1 via Linda
 Entering Link 1 = /local/apl/lx/g16c01/g16/l1.exe PID=    162988.
  
 Copyright (c) 1988-2019, Gaussian, Inc.  All Rights Reserved.
  
 This is part of the Gaussian(R) 16 program.  It is based on
 the Gaussian(R) 09 system (copyright 2009, Gaussian, Inc.),
 the Gaussian(R) 03 system (copyright 2003, Gaussian, Inc.),
 the Gaussian(R) 98 system (copyright 1998, Gaussian, Inc.),
 the Gaussian(R) 94 system (copyright 1995, Gaussian, Inc.),
 the Gaussian 92(TM) system (copyright 1992, Gaussian, Inc.),
 the Gaussian 90(TM) system (copyright 1990, Gaussian, Inc.),
 the Gaussian 88(TM) system (copyright 1988, Gaussian, Inc.),
 the Gaussian 86(TM) system (copyright 1986, Carnegie Mellon
 University), and the Gaussian 82(TM) system (copyright 1983,
 Carnegie Mellon University). Gaussian is a federally registered
 trademark of Gaussian, Inc.
  
 This software contains proprietary and confidential information,
 including trade secrets, belonging to Gaussian, Inc.
  
 This software is provided under written license and may be
 used, copied, transmitted, or stored only in accord with that
 written license.
  
 The following legend is applicable only to US Government
 contracts under FAR:
  
                    RESTRICTED RIGHTS LEGEND
  
 Use, reproduction and disclosure by the US Government is
 subject to restrictions as set forth in subparagraphs (a)
 and (c) of the Commercial Computer Software - Restricted
 Rights clause in FAR 52.227-19.
  
 Gaussian, Inc.
 340 Quinnipiac St., Bldg. 40, Wallingford CT 06492
  
  
 ---------------------------------------------------------------
 Warning -- This program may not be used in any manner that
 competes with the business of Gaussian, Inc. or will provide
 assistance to any competitor of Gaussian, Inc.  The licensee
 of this program is prohibited from giving any competitor of
 Gaussian, Inc. access to this program.  By using this program,
 the user acknowledges that Gaussian, Inc. is engaged in the
 business of creating and licensing software in the field of
 computational chemistry and represents and warrants to the
 licensee that it is not a competitor of Gaussian, Inc. and that
 it will not use this program in any manner prohibited above.
 ---------------------------------------------------------------
  

 Cite this work as:
 Gaussian 16, Revision C.01,
 M. J. Frisch, G. W. Trucks, H. B. Schlegel, G. E. Scuseria, 
 M. A. Robb, J. R. Cheeseman, G. Scalmani, V. Barone, 
 G. A. Petersson, H. Nakatsuji, X. Li, M. Caricato, A. V. Marenich, 
 J. Bloino, B. G. Janesko, R. Gomperts, B. Mennucci, H. P. Hratchian, 
 J. V. Ortiz, A. F. Izmaylov, J. L. Sonnenberg, D. Williams-Young, 
 F. Ding, F. Lipparini, F. Egidi, J. Goings, B. Peng, A. Petrone, 
 T. Henderson, D. Ranasinghe, V. G. Zakrzewski, J. Gao, N. Rega, 
 G. Zheng, W. Liang, M. Hada, M. Ehara, K. Toyota, R. Fukuda, 
 J. Hasegawa, M. Ishida, T. Nakajima, Y. Honda, O. Kitao, H. Nakai, 
 T. Vreven, K. Throssell, J. A. Montgomery, Jr., J. E. Peralta, 
 F. Ogliaro, M. J. Bearpark, J. J. Heyd, E. N. Brothers, K. N. Kudin, 
 V. N. Staroverov, T. A. Keith, R. Kobayashi, J. Normand, 
 K. Raghavachari, A. P. Rendell, J. C. Burant, S. S. Iyengar, 
 J. Tomasi, M. Cossi, J. M. Millam, M. Klene, C. Adamo, R. Cammi, 
 J. W. Ochterski, R. L. Martin, K. Morokuma, O. Farkas, 
 J. B. Foresman, and D. J. Fox, Gaussian, Inc., Wallingford CT, 2019.
 
 ******************************************
 Gaussian 16:  ES64L-G16RevC.01  3-Jul-2019
                20-Oct-2021 
 ******************************************
 %mem=100GB
 %nprocshare=16
 Will use up to   16 processors via shared memory.
 %chk=Pt_3C6F5_Por_thiophene_O-.chk
 -----------------------------------------------------
 #p opt b3lyp/genecp geom=connectivity scf=maxcyc=1000
 -----------------------------------------------------
 1/18=20,19=15,26=3,38=1,57=2/1,3;
 2/9=110,12=2,17=6,18=5,40=1/2;
 3/5=7,11=2,16=1,17=8,25=1,30=1,71=1,74=-5/1,2,3;
 4//1;
 5/5=2,7=1000,38=5/2;
 6/7=2,8=2,9=2,10=2,28=1/1;
 7//1,2,3,16;
 1/18=20,19=15,26=3/3(2);
 2/9=110/2;
 99//99;
 2/9=110/2;
 3/5=7,6=1,11=2,16=1,17=8,25=1,30=1,71=1,74=-5,82=7/1,2,3;
 4/5=5,16=3,69=1/1;
 5/5=2,7=1000,38=5/2;
 7//1,2,3,16;
 1/18=20,19=15,26=3/3(-5);
 2/9=110/2;
 6/7=2,8=2,9=2,10=2,19=2,28=1/1;
 99/9=1/99;
 Leave Link    1 at Wed Oct 20 15:46:05 2021, MaxMem= 13421772800 cpu:               1.8 elap:               0.1
 (Enter /local/apl/lx/g16c01/g16/l101.exe)
 -----
 title
 -----
 Symbolic Z-matrix:
 Charge = -1 Multiplicity = 1
 C                    -1.2895   -2.40043  -0.86787 
 C                     1.25007   2.84211  -0.30677 
 C                     3.53851   2.61392   0.19369 
 C                     2.82085   1.27215   0.2021 
 C                     2.7056   -1.08095   0.11209 
 C                     2.40913  -3.13073  -0.68961 
 C                     1.22381  -2.43015  -0.86578 
 C                    -1.18093   2.92229  -0.19063 
 C                    -2.52764   3.65199   0.02442 
 C                    -2.74097  -1.01379   0.1165 
 C                    -3.35394  -2.2548    0.02299 
 C                    -2.78711   1.36342   0.27609 
 H                    -4.31112  -2.5284    0.41065 
 H                    -2.68687   4.70686  -0.05155 
 H                     4.56491   2.78641   0.43894 
 N                     1.35121  -1.21303  -0.36875 
 N                    -1.40325  -1.17023  -0.35933 
 N                     1.40893   1.53743  -0.13309 
 N                    -1.38316   1.59441  -0.06019 
 C                     2.6237    3.54116  -0.17014 
 H                     2.81112   4.58258  -0.31117 
 C                     3.28684  -2.33593   0.0384 
 H                     4.2312   -2.63098   0.43892 
 C                    -2.4904   -3.07084  -0.70286 
 C                    -3.46847   2.72696   0.33313 
 H                    -4.49366   2.91295   0.57018 
 C                    -0.03713  -3.00855  -1.45934 
 C                    -3.35958   0.15619   0.50998 
 C                     3.35767   0.06632   0.49054 
 C                     0.04538   3.52961  -0.49742 
 C                     4.70201  -0.06115   1.19055 
 C                     5.84382   0.26605   0.4813 
 C                     4.78324  -0.5113    2.52067 
 C                     7.0961    0.07338   1.06224 
 C                     6.0341   -0.58387   3.145 
 C                     7.19381  -0.32452   2.4029 
 C                     0.07046   4.97287  -0.99754 
 C                     0.40096   5.24827  -2.33577 
 C                    -0.24      6.00505  -0.12056 
 C                     0.36405   6.56965  -2.79885 
 C                    -0.15553   7.33074  -0.55358 
 C                     0.11628   7.61361  -1.89902 
 C                    -4.71814   0.0513    1.17618 
 C                    -5.84236   0.40058   0.44674 
 C                    -4.82552  -0.4005    2.49913 
 C                    -7.10574   0.23355   1.01046 
 C                    -6.08349  -0.44534   3.10693 
 C                    -7.22803  -0.1602    2.3505 
 C                    -2.80681  -4.47419  -1.19146 
 C                    -2.94933  -6.45614  -2.54839 
 H                    -1.50994  -4.65931  -2.91084 
 F                     3.66345  -0.83204   3.20852 
 F                     6.12344  -0.89537   4.4571 
 F                     8.40589  -0.45656   2.97792 
 F                     8.20912   0.26047   0.32591 
 F                     5.73417   0.72307  -0.78333 
 F                     0.71045   4.243    -3.18602 
 F                     0.5567    6.83684  -4.10944 
 F                     0.13975   8.89246  -2.32653 
 F                    -0.32835   8.336     0.32838 
 F                    -0.57627   5.72146   1.15435 
 F                    -5.70597   0.85252  -0.81769 
 F                    -8.20539   0.44161   0.25954 
 F                    -8.44906  -0.26413   2.9114 
 F                    -6.19412  -0.75381   4.41745 
 F                    -3.72016  -0.74833   3.19727 
 H                    -2.70989  -7.09271  -3.37276 
 O                    -0.04543  -3.95152  -2.29542 
 C                    -2.27682  -5.08213  -2.28906 
 C                    -3.89445  -6.75207  -1.61314 
 H                    -4.52845  -7.60793  -1.63438 
 S                    -3.94485  -5.52474  -0.35264 
 Pt                    0.01284   0.19326  -0.24556 
 H                     2.61402  -4.12359  -1.03187 
 
 ITRead=  0  0  0  0  0  0  0  0  0  0  0  0  0  0  0  0  0  0  0  0
 ITRead=  0  0  0  0  0  0  0  0  0  0  0  0  0  0  0  0  0  0  0  0
 ITRead=  0  0  0  0  0  0  0  0  0  0  0  0  0  0  0  0  0  0  0  0
 ITRead=  0  0  0  0  0  0  0  0  0  0  0  0  0  0
 MicOpt= -1 -1 -1 -1 -1 -1 -1 -1 -1 -1 -1 -1 -1 -1 -1 -1 -1 -1 -1 -1
 MicOpt= -1 -1 -1 -1 -1 -1 -1 -1 -1 -1 -1 -1 -1 -1 -1 -1 -1 -1 -1 -1
 MicOpt= -1 -1 -1 -1 -1 -1 -1 -1 -1 -1 -1 -1 -1 -1 -1 -1 -1 -1 -1 -1
 MicOpt= -1 -1 -1 -1 -1 -1 -1 -1 -1 -1 -1 -1 -1 -1
 NAtoms=     74 NQM=       74 NQMF=       0 NMMI=      0 NMMIF=      0
                NMic=       0 NMicF=      0.
                    Isotopes and Nuclear Properties:
 (Nuclear quadrupole moments (NQMom) in fm**2, nuclear magnetic moments (NMagM)
  in nuclear magnetons)

  Atom         1           2           3           4           5           6           7           8           9          10
 IAtWgt=          12          12          12          12          12          12          12          12          12          12
 AtmWgt=  12.0000000  12.0000000  12.0000000  12.0000000  12.0000000  12.0000000  12.0000000  12.0000000  12.0000000  12.0000000
 NucSpn=           0           0           0           0           0           0           0           0           0           0
 AtZEff=   0.0000000   0.0000000   0.0000000   0.0000000   0.0000000   0.0000000   0.0000000   0.0000000   0.0000000   0.0000000
 NQMom=    0.0000000   0.0000000   0.0000000   0.0000000   0.0000000   0.0000000   0.0000000   0.0000000   0.0000000   0.0000000
 NMagM=    0.0000000   0.0000000   0.0000000   0.0000000   0.0000000   0.0000000   0.0000000   0.0000000   0.0000000   0.0000000
 AtZNuc=   6.0000000   6.0000000   6.0000000   6.0000000   6.0000000   6.0000000   6.0000000   6.0000000   6.0000000   6.0000000

  Atom        11          12          13          14          15          16          17          18          19          20
 IAtWgt=          12          12           1           1           1          14          14          14          14          12
 AtmWgt=  12.0000000  12.0000000   1.0078250   1.0078250   1.0078250  14.0030740  14.0030740  14.0030740  14.0030740  12.0000000
 NucSpn=           0           0           1           1           1           2           2           2           2           0
 AtZEff=   0.0000000   0.0000000   0.0000000   0.0000000   0.0000000   0.0000000   0.0000000   0.0000000   0.0000000   0.0000000
 NQMom=    0.0000000   0.0000000   0.0000000   0.0000000   0.0000000   2.0440000   2.0440000   2.0440000   2.0440000   0.0000000
 NMagM=    0.0000000   0.0000000   2.7928460   2.7928460   2.7928460   0.4037610   0.4037610   0.4037610   0.4037610   0.0000000
 AtZNuc=   6.0000000   6.0000000   1.0000000   1.0000000   1.0000000   7.0000000   7.0000000   7.0000000   7.0000000   6.0000000

  Atom        21          22          23          24          25          26          27          28          29          30
 IAtWgt=           1          12           1          12          12           1          12          12          12          12
 AtmWgt=   1.0078250  12.0000000   1.0078250  12.0000000  12.0000000   1.0078250  12.0000000  12.0000000  12.0000000  12.0000000
 NucSpn=           1           0           1           0           0           1           0           0           0           0
 AtZEff=   0.0000000   0.0000000   0.0000000   0.0000000   0.0000000   0.0000000   0.0000000   0.0000000   0.0000000   0.0000000
 NQMom=    0.0000000   0.0000000   0.0000000   0.0000000   0.0000000   0.0000000   0.0000000   0.0000000   0.0000000   0.0000000
 NMagM=    2.7928460   0.0000000   2.7928460   0.0000000   0.0000000   2.7928460   0.0000000   0.0000000   0.0000000   0.0000000
 AtZNuc=   1.0000000   6.0000000   1.0000000   6.0000000   6.0000000   1.0000000   6.0000000   6.0000000   6.0000000   6.0000000

  Atom        31          32          33          34          35          36          37          38          39          40
 IAtWgt=          12          12          12          12          12          12          12          12          12          12
 AtmWgt=  12.0000000  12.0000000  12.0000000  12.0000000  12.0000000  12.0000000  12.0000000  12.0000000  12.0000000  12.0000000
 NucSpn=           0           0           0           0           0           0           0           0           0           0
 AtZEff=   0.0000000   0.0000000   0.0000000   0.0000000   0.0000000   0.0000000   0.0000000   0.0000000   0.0000000   0.0000000
 NQMom=    0.0000000   0.0000000   0.0000000   0.0000000   0.0000000   0.0000000   0.0000000   0.0000000   0.0000000   0.0000000
 NMagM=    0.0000000   0.0000000   0.0000000   0.0000000   0.0000000   0.0000000   0.0000000   0.0000000   0.0000000   0.0000000
 AtZNuc=   6.0000000   6.0000000   6.0000000   6.0000000   6.0000000   6.0000000   6.0000000   6.0000000   6.0000000   6.0000000

  Atom        41          42          43          44          45          46          47          48          49          50
 IAtWgt=          12          12          12          12          12          12          12          12          12          12
 AtmWgt=  12.0000000  12.0000000  12.0000000  12.0000000  12.0000000  12.0000000  12.0000000  12.0000000  12.0000000  12.0000000
 NucSpn=           0           0           0           0           0           0           0           0           0           0
 AtZEff=   0.0000000   0.0000000   0.0000000   0.0000000   0.0000000   0.0000000   0.0000000   0.0000000   0.0000000   0.0000000
 NQMom=    0.0000000   0.0000000   0.0000000   0.0000000   0.0000000   0.0000000   0.0000000   0.0000000   0.0000000   0.0000000
 NMagM=    0.0000000   0.0000000   0.0000000   0.0000000   0.0000000   0.0000000   0.0000000   0.0000000   0.0000000   0.0000000
 AtZNuc=   6.0000000   6.0000000   6.0000000   6.0000000   6.0000000   6.0000000   6.0000000   6.0000000   6.0000000   6.0000000

  Atom        51          52          53          54          55          56          57          58          59          60
 IAtWgt=           1          19          19          19          19          19          19          19          19          19
 AtmWgt=   1.0078250  18.9984032  18.9984032  18.9984032  18.9984032  18.9984032  18.9984032  18.9984032  18.9984032  18.9984032
 NucSpn=           1           1           1           1           1           1           1           1           1           1
 AtZEff=   0.0000000   0.0000000   0.0000000   0.0000000   0.0000000   0.0000000   0.0000000   0.0000000   0.0000000   0.0000000
 NQMom=    0.0000000   0.0000000   0.0000000   0.0000000   0.0000000   0.0000000   0.0000000   0.0000000   0.0000000   0.0000000
 NMagM=    2.7928460   2.6288670   2.6288670   2.6288670   2.6288670   2.6288670   2.6288670   2.6288670   2.6288670   2.6288670
 AtZNuc=   1.0000000   9.0000000   9.0000000   9.0000000   9.0000000   9.0000000   9.0000000   9.0000000   9.0000000   9.0000000

  Atom        61          62          63          64          65          66          67          68          69          70
 IAtWgt=          19          19          19          19          19          19           1          16          12          12
 AtmWgt=  18.9984032  18.9984032  18.9984032  18.9984032  18.9984032  18.9984032   1.0078250  15.9949146  12.0000000  12.0000000
 NucSpn=           1           1           1           1           1           1           1           0           0           0
 AtZEff=   0.0000000   0.0000000   0.0000000   0.0000000   0.0000000   0.0000000   0.0000000   0.0000000   0.0000000   0.0000000
 NQMom=    0.0000000   0.0000000   0.0000000   0.0000000   0.0000000   0.0000000   0.0000000   0.0000000   0.0000000   0.0000000
 NMagM=    2.6288670   2.6288670   2.6288670   2.6288670   2.6288670   2.6288670   2.7928460   0.0000000   0.0000000   0.0000000
 AtZNuc=   9.0000000   9.0000000   9.0000000   9.0000000   9.0000000   9.0000000   1.0000000   8.0000000   6.0000000   6.0000000

  Atom        71          72          73          74
 IAtWgt=           1          32         195           1
 AtmWgt=   1.0078250  31.9720718 194.9648000   1.0078250
 NucSpn=           1           0           1           1
 AtZEff=   0.0000000   0.0000000   0.0000000   0.0000000
 NQMom=    0.0000000   0.0000000   0.0000000   0.0000000
 NMagM=    2.7928460   0.0000000   0.6095000   2.7928460
 AtZNuc=   1.0000000  16.0000000  78.0000000   1.0000000
 Leave Link  101 at Wed Oct 20 15:46:08 2021, MaxMem= 13421772800 cpu:              17.2 elap:               1.1
 (Enter /local/apl/lx/g16c01/g16/l103.exe)

 GradGradGradGradGradGradGradGradGradGradGradGradGradGradGradGradGradGrad
 Berny optimization.
 Initialization pass.
                           ----------------------------
                           !    Initial Parameters    !
                           ! (Angstroms and Degrees)  !
 --------------------------                            --------------------------
 ! Name  Definition              Value          Derivative Info.                !
 --------------------------------------------------------------------------------
 ! R1    R(1,17)                 1.336          estimate D2E/DX2                !
 ! R2    R(1,24)                 1.3852         estimate D2E/DX2                !
 ! R3    R(1,27)                 1.5126         estimate D2E/DX2                !
 ! R4    R(2,18)                 1.3257         estimate D2E/DX2                !
 ! R5    R(2,20)                 1.5473         estimate D2E/DX2                !
 ! R6    R(2,30)                 1.4001         estimate D2E/DX2                !
 ! R7    R(3,4)                  1.5217         estimate D2E/DX2                !
 ! R8    R(3,15)                 1.0693         estimate D2E/DX2                !
 ! R9    R(3,20)                 1.3524         estimate D2E/DX2                !
 ! R10   R(4,18)                 1.4752         estimate D2E/DX2                !
 ! R11   R(4,29)                 1.3511         estimate D2E/DX2                !
 ! R12   R(5,16)                 1.4433         estimate D2E/DX2                !
 ! R13   R(5,22)                 1.385          estimate D2E/DX2                !
 ! R14   R(5,29)                 1.3728         estimate D2E/DX2                !
 ! R15   R(6,7)                  1.3881         estimate D2E/DX2                !
 ! R16   R(6,22)                 1.39           estimate D2E/DX2                !
 ! R17   R(6,74)                 1.07           estimate D2E/DX2                !
 ! R18   R(7,16)                 1.3209         estimate D2E/DX2                !
 ! R19   R(7,27)                 1.5089         estimate D2E/DX2                !
 ! R20   R(8,9)                  1.5467         estimate D2E/DX2                !
 ! R21   R(8,19)                 1.3495         estimate D2E/DX2                !
 ! R22   R(8,30)                 1.4024         estimate D2E/DX2                !
 ! R23   R(9,14)                 1.0695         estimate D2E/DX2                !
 ! R24   R(9,25)                 1.355          estimate D2E/DX2                !
 ! R25   R(10,11)                1.3873         estimate D2E/DX2                !
 ! R26   R(10,17)                1.4284         estimate D2E/DX2                !
 ! R27   R(10,28)                1.3807         estimate D2E/DX2                !
 ! R28   R(11,13)                1.0683         estimate D2E/DX2                !
 ! R29   R(11,24)                1.3923         estimate D2E/DX2                !
 ! R30   R(12,19)                1.462          estimate D2E/DX2                !
 ! R31   R(12,25)                1.5254         estimate D2E/DX2                !
 ! R32   R(12,28)                1.3564         estimate D2E/DX2                !
 ! R33   R(16,73)                1.9453         estimate D2E/DX2                !
 ! R34   R(17,73)                1.9691         estimate D2E/DX2                !
 ! R35   R(18,73)                1.9413         estimate D2E/DX2                !
 ! R36   R(19,73)                1.9866         estimate D2E/DX2                !
 ! R37   R(20,21)                1.0675         estimate D2E/DX2                !
 ! R38   R(22,23)                1.0674         estimate D2E/DX2                !
 ! R39   R(24,49)                1.5193         estimate D2E/DX2                !
 ! R40   R(25,26)                1.0685         estimate D2E/DX2                !
 ! R41   R(27,68)                1.2603         estimate D2E/DX2                !
 ! R42   R(28,43)                1.5167         estimate D2E/DX2                !
 ! R43   R(29,31)                1.521          estimate D2E/DX2                !
 ! R44   R(30,37)                1.5277         estimate D2E/DX2                !
 ! R45   R(31,32)                1.3834         estimate D2E/DX2                !
 ! R46   R(31,33)                1.4066         estimate D2E/DX2                !
 ! R47   R(32,34)                1.3939         estimate D2E/DX2                !
 ! R48   R(32,56)                1.3491         estimate D2E/DX2                !
 ! R49   R(33,35)                1.3999         estimate D2E/DX2                !
 ! R50   R(33,52)                1.3527         estimate D2E/DX2                !
 ! R51   R(34,36)                1.4019         estimate D2E/DX2                !
 ! R52   R(34,55)                1.3476         estimate D2E/DX2                !
 ! R53   R(35,36)                1.401          estimate D2E/DX2                !
 ! R54   R(35,53)                1.3515         estimate D2E/DX2                !
 ! R55   R(36,54)                1.348          estimate D2E/DX2                !
 ! R56   R(37,38)                1.4057         estimate D2E/DX2                !
 ! R57   R(37,39)                1.3896         estimate D2E/DX2                !
 ! R58   R(38,40)                1.4007         estimate D2E/DX2                !
 ! R59   R(38,57)                1.3525         estimate D2E/DX2                !
 ! R60   R(39,41)                1.3972         estimate D2E/DX2                !
 ! R61   R(39,61)                1.3487         estimate D2E/DX2                !
 ! R62   R(40,42)                1.4003         estimate D2E/DX2                !
 ! R63   R(40,58)                1.3514         estimate D2E/DX2                !
 ! R64   R(41,42)                1.4015         estimate D2E/DX2                !
 ! R65   R(41,60)                1.3484         estimate D2E/DX2                !
 ! R66   R(42,59)                1.3486         estimate D2E/DX2                !
 ! R67   R(43,44)                1.3849         estimate D2E/DX2                !
 ! R68   R(43,45)                1.4021         estimate D2E/DX2                !
 ! R69   R(44,46)                1.3935         estimate D2E/DX2                !
 ! R70   R(44,62)                1.3497         estimate D2E/DX2                !
 ! R71   R(45,47)                1.3978         estimate D2E/DX2                !
 ! R72   R(45,66)                1.3529         estimate D2E/DX2                !
 ! R73   R(46,48)                1.402          estimate D2E/DX2                !
 ! R74   R(46,63)                1.3477         estimate D2E/DX2                !
 ! R75   R(47,48)                1.4012         estimate D2E/DX2                !
 ! R76   R(47,65)                1.3509         estimate D2E/DX2                !
 ! R77   R(48,64)                1.3477         estimate D2E/DX2                !
 ! R78   R(49,69)                1.3621         estimate D2E/DX2                !
 ! R79   R(49,72)                1.7614         estimate D2E/DX2                !
 ! R80   R(50,67)                1.0687         estimate D2E/DX2                !
 ! R81   R(50,69)                1.5516         estimate D2E/DX2                !
 ! R82   R(50,70)                1.3622         estimate D2E/DX2                !
 ! R83   R(51,69)                1.074          estimate D2E/DX2                !
 ! R84   R(70,71)                1.0653         estimate D2E/DX2                !
 ! R85   R(70,72)                1.76           estimate D2E/DX2                !
 ! A1    A(17,1,24)            109.0553         estimate D2E/DX2                !
 ! A2    A(17,1,27)            126.1226         estimate D2E/DX2                !
 ! A3    A(24,1,27)            124.735          estimate D2E/DX2                !
 ! A4    A(18,2,20)            109.0662         estimate D2E/DX2                !
 ! A5    A(18,2,30)            127.1695         estimate D2E/DX2                !
 ! A6    A(20,2,30)            123.6439         estimate D2E/DX2                !
 ! A7    A(4,3,15)             126.4189         estimate D2E/DX2                !
 ! A8    A(4,3,20)             106.6801         estimate D2E/DX2                !
 ! A9    A(15,3,20)            126.8981         estimate D2E/DX2                !
 ! A10   A(3,4,18)             106.9519         estimate D2E/DX2                !
 ! A11   A(3,4,29)             126.9254         estimate D2E/DX2                !
 ! A12   A(18,4,29)            126.1065         estimate D2E/DX2                !
 ! A13   A(16,5,22)            107.0482         estimate D2E/DX2                !
 ! A14   A(16,5,29)            127.883          estimate D2E/DX2                !
 ! A15   A(22,5,29)            124.9302         estimate D2E/DX2                !
 ! A16   A(7,6,22)             108.4867         estimate D2E/DX2                !
 ! A17   A(7,6,74)             126.2449         estimate D2E/DX2                !
 ! A18   A(22,6,74)            125.2535         estimate D2E/DX2                !
 ! A19   A(6,7,16)             109.5695         estimate D2E/DX2                !
 ! A20   A(6,7,27)             124.7529         estimate D2E/DX2                !
 ! A21   A(16,7,27)            125.5801         estimate D2E/DX2                !
 ! A22   A(9,8,19)             108.6806         estimate D2E/DX2                !
 ! A23   A(9,8,30)             125.9772         estimate D2E/DX2                !
 ! A24   A(19,8,30)            125.3305         estimate D2E/DX2                !
 ! A25   A(8,9,14)             125.8075         estimate D2E/DX2                !
 ! A26   A(8,9,25)             108.3094         estimate D2E/DX2                !
 ! A27   A(14,9,25)            125.882          estimate D2E/DX2                !
 ! A28   A(11,10,17)           107.0597         estimate D2E/DX2                !
 ! A29   A(11,10,28)           125.3994         estimate D2E/DX2                !
 ! A30   A(17,10,28)           127.3961         estimate D2E/DX2                !
 ! A31   A(10,11,13)           126.9069         estimate D2E/DX2                !
 ! A32   A(10,11,24)           106.583          estimate D2E/DX2                !
 ! A33   A(13,11,24)           126.496          estimate D2E/DX2                !
 ! A34   A(19,12,25)           107.2365         estimate D2E/DX2                !
 ! A35   A(19,12,28)           125.8427         estimate D2E/DX2                !
 ! A36   A(25,12,28)           126.9148         estimate D2E/DX2                !
 ! A37   A(5,16,7)             107.4696         estimate D2E/DX2                !
 ! A38   A(5,16,73)            123.9445         estimate D2E/DX2                !
 ! A39   A(7,16,73)            128.5815         estimate D2E/DX2                !
 ! A40   A(1,17,10)            107.9014         estimate D2E/DX2                !
 ! A41   A(1,17,73)            126.7522         estimate D2E/DX2                !
 ! A42   A(10,17,73)           125.339          estimate D2E/DX2                !
 ! A43   A(2,18,4)             108.7492         estimate D2E/DX2                !
 ! A44   A(2,18,73)            125.9907         estimate D2E/DX2                !
 ! A45   A(4,18,73)            125.2368         estimate D2E/DX2                !
 ! A46   A(8,19,12)            108.7595         estimate D2E/DX2                !
 ! A47   A(8,19,73)            125.4281         estimate D2E/DX2                !
 ! A48   A(12,19,73)           125.7918         estimate D2E/DX2                !
 ! A49   A(2,20,3)             108.3308         estimate D2E/DX2                !
 ! A50   A(2,20,21)            125.7984         estimate D2E/DX2                !
 ! A51   A(3,20,21)            125.8486         estimate D2E/DX2                !
 ! A52   A(5,22,6)             106.3192         estimate D2E/DX2                !
 ! A53   A(5,22,23)            126.9995         estimate D2E/DX2                !
 ! A54   A(6,22,23)            126.6659         estimate D2E/DX2                !
 ! A55   A(1,24,11)            108.4297         estimate D2E/DX2                !
 ! A56   A(1,24,49)            126.1059         estimate D2E/DX2                !
 ! A57   A(11,24,49)           125.4418         estimate D2E/DX2                !
 ! A58   A(9,25,12)            106.9521         estimate D2E/DX2                !
 ! A59   A(9,25,26)            126.7164         estimate D2E/DX2                !
 ! A60   A(12,25,26)           126.3314         estimate D2E/DX2                !
 ! A61   A(1,27,7)             112.5789         estimate D2E/DX2                !
 ! A62   A(1,27,68)            123.6939         estimate D2E/DX2                !
 ! A63   A(7,27,68)            123.5925         estimate D2E/DX2                !
 ! A64   A(10,28,12)           121.0613         estimate D2E/DX2                !
 ! A65   A(10,28,43)           117.8966         estimate D2E/DX2                !
 ! A66   A(12,28,43)           121.019          estimate D2E/DX2                !
 ! A67   A(4,29,5)             119.8866         estimate D2E/DX2                !
 ! A68   A(4,29,31)            121.6161         estimate D2E/DX2                !
 ! A69   A(5,29,31)            118.4662         estimate D2E/DX2                !
 ! A70   A(2,30,8)             120.6607         estimate D2E/DX2                !
 ! A71   A(2,30,37)            119.6272         estimate D2E/DX2                !
 ! A72   A(8,30,37)            119.6761         estimate D2E/DX2                !
 ! A73   A(29,31,32)           118.2756         estimate D2E/DX2                !
 ! A74   A(29,31,33)           120.8688         estimate D2E/DX2                !
 ! A75   A(32,31,33)           120.8532         estimate D2E/DX2                !
 ! A76   A(31,32,34)           119.6802         estimate D2E/DX2                !
 ! A77   A(31,32,56)           119.578          estimate D2E/DX2                !
 ! A78   A(34,32,56)           120.6985         estimate D2E/DX2                !
 ! A79   A(31,33,35)           119.3363         estimate D2E/DX2                !
 ! A80   A(31,33,52)           120.5917         estimate D2E/DX2                !
 ! A81   A(35,33,52)           120.0394         estimate D2E/DX2                !
 ! A82   A(32,34,36)           120.0294         estimate D2E/DX2                !
 ! A83   A(32,34,55)           119.6777         estimate D2E/DX2                !
 ! A84   A(36,34,55)           120.2905         estimate D2E/DX2                !
 ! A85   A(33,35,36)           119.591          estimate D2E/DX2                !
 ! A86   A(33,35,53)           120.264          estimate D2E/DX2                !
 ! A87   A(36,35,53)           120.1442         estimate D2E/DX2                !
 ! A88   A(34,36,35)           120.0926         estimate D2E/DX2                !
 ! A89   A(34,36,54)           119.8946         estimate D2E/DX2                !
 ! A90   A(35,36,54)           120.0128         estimate D2E/DX2                !
 ! A91   A(30,37,38)           120.0416         estimate D2E/DX2                !
 ! A92   A(30,37,39)           119.4384         estimate D2E/DX2                !
 ! A93   A(38,37,39)           120.5197         estimate D2E/DX2                !
 ! A94   A(37,38,40)           119.5634         estimate D2E/DX2                !
 ! A95   A(37,38,57)           120.4416         estimate D2E/DX2                !
 ! A96   A(40,38,57)           119.9593         estimate D2E/DX2                !
 ! A97   A(37,39,41)           119.7159         estimate D2E/DX2                !
 ! A98   A(37,39,61)           119.7439         estimate D2E/DX2                !
 ! A99   A(41,39,61)           120.5016         estimate D2E/DX2                !
 ! A100  A(38,40,42)           119.7049         estimate D2E/DX2                !
 ! A101  A(38,40,58)           120.2264         estimate D2E/DX2                !
 ! A102  A(42,40,58)           120.067          estimate D2E/DX2                !
 ! A103  A(39,41,42)           120.0512         estimate D2E/DX2                !
 ! A104  A(39,41,60)           119.7953         estimate D2E/DX2                !
 ! A105  A(42,41,60)           120.1523         estimate D2E/DX2                !
 ! A106  A(40,42,41)           120.0485         estimate D2E/DX2                !
 ! A107  A(40,42,59)           120.011          estimate D2E/DX2                !
 ! A108  A(41,42,59)           119.9405         estimate D2E/DX2                !
 ! A109  A(28,43,44)           118.5758         estimate D2E/DX2                !
 ! A110  A(28,43,45)           120.3529         estimate D2E/DX2                !
 ! A111  A(44,43,45)           121.0695         estimate D2E/DX2                !
 ! A112  A(43,44,46)           119.5162         estimate D2E/DX2                !
 ! A113  A(43,44,62)           119.7264         estimate D2E/DX2                !
 ! A114  A(46,44,62)           120.7135         estimate D2E/DX2                !
 ! A115  A(43,45,47)           119.3103         estimate D2E/DX2                !
 ! A116  A(43,45,66)           120.4772         estimate D2E/DX2                !
 ! A117  A(47,45,66)           120.177          estimate D2E/DX2                !
 ! A118  A(44,46,48)           119.9598         estimate D2E/DX2                !
 ! A119  A(44,46,63)           119.7248         estimate D2E/DX2                !
 ! A120  A(48,46,63)           120.3133         estimate D2E/DX2                !
 ! A121  A(45,47,48)           119.5924         estimate D2E/DX2                !
 ! A122  A(45,47,65)           120.1892         estimate D2E/DX2                !
 ! A123  A(48,47,65)           120.2172         estimate D2E/DX2                !
 ! A124  A(46,48,47)           120.1236         estimate D2E/DX2                !
 ! A125  A(46,48,64)           119.8981         estimate D2E/DX2                !
 ! A126  A(47,48,64)           119.9783         estimate D2E/DX2                !
 ! A127  A(24,49,69)           126.1853         estimate D2E/DX2                !
 ! A128  A(24,49,72)           122.1632         estimate D2E/DX2                !
 ! A129  A(69,49,72)           111.6514         estimate D2E/DX2                !
 ! A130  A(67,50,69)           124.0069         estimate D2E/DX2                !
 ! A131  A(67,50,70)           123.7561         estimate D2E/DX2                !
 ! A132  A(69,50,70)           112.2319         estimate D2E/DX2                !
 ! A133  A(49,69,50)           111.1797         estimate D2E/DX2                !
 ! A134  A(49,69,51)           124.6563         estimate D2E/DX2                !
 ! A135  A(50,69,51)           124.1489         estimate D2E/DX2                !
 ! A136  A(50,70,71)           125.0129         estimate D2E/DX2                !
 ! A137  A(50,70,72)           111.1056         estimate D2E/DX2                !
 ! A138  A(71,70,72)           123.8808         estimate D2E/DX2                !
 ! A139  A(49,72,70)            93.2304         estimate D2E/DX2                !
 ! A140  A(16,73,17)            89.4583         estimate D2E/DX2                !
 ! A141  A(16,73,18)            90.5412         estimate D2E/DX2                !
 ! A142  A(17,73,19)            89.3358         estimate D2E/DX2                !
 ! A143  A(18,73,19)            90.6644         estimate D2E/DX2                !
 ! A144  L(16,73,19,18,-1)     181.2057         estimate D2E/DX2                !
 ! A145  L(17,73,18,19,-1)     180.0002         estimate D2E/DX2                !
 ! A146  L(16,73,19,18,-2)     181.7963         estimate D2E/DX2                !
 ! A147  L(17,73,18,19,-2)     179.9908         estimate D2E/DX2                !
 ! D1    D(24,1,17,10)          -1.9514         estimate D2E/DX2                !
 ! D2    D(24,1,17,73)         177.0942         estimate D2E/DX2                !
 ! D3    D(27,1,17,10)        -178.6723         estimate D2E/DX2                !
 ! D4    D(27,1,17,73)           0.3733         estimate D2E/DX2                !
 ! D5    D(17,1,24,11)          -4.3422         estimate D2E/DX2                !
 ! D6    D(17,1,24,49)         177.3173         estimate D2E/DX2                !
 ! D7    D(27,1,24,11)         172.4349         estimate D2E/DX2                !
 ! D8    D(27,1,24,49)          -5.9056         estimate D2E/DX2                !
 ! D9    D(17,1,27,7)           28.1067         estimate D2E/DX2                !
 ! D10   D(17,1,27,68)        -155.984          estimate D2E/DX2                !
 ! D11   D(24,1,27,7)         -148.1212         estimate D2E/DX2                !
 ! D12   D(24,1,27,68)          27.7881         estimate D2E/DX2                !
 ! D13   D(20,2,18,4)            3.3291         estimate D2E/DX2                !
 ! D14   D(20,2,18,73)        -178.3594         estimate D2E/DX2                !
 ! D15   D(30,2,18,4)         -172.7667         estimate D2E/DX2                !
 ! D16   D(30,2,18,73)           5.5449         estimate D2E/DX2                !
 ! D17   D(18,2,20,3)           -5.006          estimate D2E/DX2                !
 ! D18   D(18,2,20,21)         176.6286         estimate D2E/DX2                !
 ! D19   D(30,2,20,3)          171.2571         estimate D2E/DX2                !
 ! D20   D(30,2,20,21)          -7.1082         estimate D2E/DX2                !
 ! D21   D(18,2,30,8)           16.2264         estimate D2E/DX2                !
 ! D22   D(18,2,30,37)        -165.9626         estimate D2E/DX2                !
 ! D23   D(20,2,30,8)         -159.3401         estimate D2E/DX2                !
 ! D24   D(20,2,30,37)          18.4709         estimate D2E/DX2                !
 ! D25   D(15,3,4,18)          177.0364         estimate D2E/DX2                !
 ! D26   D(15,3,4,29)           -1.5621         estimate D2E/DX2                !
 ! D27   D(20,3,4,18)           -2.3708         estimate D2E/DX2                !
 ! D28   D(20,3,4,29)          179.0307         estimate D2E/DX2                !
 ! D29   D(4,3,20,2)             4.2248         estimate D2E/DX2                !
 ! D30   D(4,3,20,21)         -177.4108         estimate D2E/DX2                !
 ! D31   D(15,3,20,2)         -175.1786         estimate D2E/DX2                !
 ! D32   D(15,3,20,21)           3.1857         estimate D2E/DX2                !
 ! D33   D(3,4,18,2)            -0.8147         estimate D2E/DX2                !
 ! D34   D(3,4,18,73)         -179.142          estimate D2E/DX2                !
 ! D35   D(29,4,18,2)          177.7986         estimate D2E/DX2                !
 ! D36   D(29,4,18,73)          -0.5287         estimate D2E/DX2                !
 ! D37   D(3,4,29,5)          -162.2306         estimate D2E/DX2                !
 ! D38   D(3,4,29,31)           15.7093         estimate D2E/DX2                !
 ! D39   D(18,4,29,5)           19.4288         estimate D2E/DX2                !
 ! D40   D(18,4,29,31)        -162.6313         estimate D2E/DX2                !
 ! D41   D(22,5,16,7)           -8.2544         estimate D2E/DX2                !
 ! D42   D(22,5,16,73)         171.0448         estimate D2E/DX2                !
 ! D43   D(29,5,16,7)          167.5918         estimate D2E/DX2                !
 ! D44   D(29,5,16,73)         -13.109          estimate D2E/DX2                !
 ! D45   D(16,5,22,6)           10.6407         estimate D2E/DX2                !
 ! D46   D(16,5,22,23)        -170.7186         estimate D2E/DX2                !
 ! D47   D(29,5,22,6)         -165.3607         estimate D2E/DX2                !
 ! D48   D(29,5,22,23)          13.28           estimate D2E/DX2                !
 ! D49   D(16,5,29,4)          -12.4209         estimate D2E/DX2                !
 ! D50   D(16,5,29,31)         169.5746         estimate D2E/DX2                !
 ! D51   D(22,5,29,4)          162.7336         estimate D2E/DX2                !
 ! D52   D(22,5,29,31)         -15.2708         estimate D2E/DX2                !
 ! D53   D(22,6,7,16)            4.3068         estimate D2E/DX2                !
 ! D54   D(22,6,7,27)         -172.2684         estimate D2E/DX2                !
 ! D55   D(74,6,7,16)         -177.0416         estimate D2E/DX2                !
 ! D56   D(74,6,7,27)            6.3832         estimate D2E/DX2                !
 ! D57   D(7,6,22,5)            -9.3778         estimate D2E/DX2                !
 ! D58   D(7,6,22,23)          171.9755         estimate D2E/DX2                !
 ! D59   D(74,6,22,5)          171.9539         estimate D2E/DX2                !
 ! D60   D(74,6,22,23)          -6.6928         estimate D2E/DX2                !
 ! D61   D(6,7,16,5)             2.4158         estimate D2E/DX2                !
 ! D62   D(6,7,16,73)         -176.8405         estimate D2E/DX2                !
 ! D63   D(27,7,16,5)          178.956          estimate D2E/DX2                !
 ! D64   D(27,7,16,73)          -0.3003         estimate D2E/DX2                !
 ! D65   D(6,7,27,1)           147.7204         estimate D2E/DX2                !
 ! D66   D(6,7,27,68)          -28.1938         estimate D2E/DX2                !
 ! D67   D(16,7,27,1)          -28.3111         estimate D2E/DX2                !
 ! D68   D(16,7,27,68)         155.7747         estimate D2E/DX2                !
 ! D69   D(19,8,9,14)         -177.719          estimate D2E/DX2                !
 ! D70   D(19,8,9,25)            2.6397         estimate D2E/DX2                !
 ! D71   D(30,8,9,14)            1.0875         estimate D2E/DX2                !
 ! D72   D(30,8,9,25)         -178.5537         estimate D2E/DX2                !
 ! D73   D(9,8,19,12)           -1.7994         estimate D2E/DX2                !
 ! D74   D(9,8,19,73)          179.7759         estimate D2E/DX2                !
 ! D75   D(30,8,19,12)         179.3845         estimate D2E/DX2                !
 ! D76   D(30,8,19,73)           0.9598         estimate D2E/DX2                !
 ! D77   D(9,8,30,2)           162.0714         estimate D2E/DX2                !
 ! D78   D(9,8,30,37)          -15.7386         estimate D2E/DX2                !
 ! D79   D(19,8,30,2)          -19.3145         estimate D2E/DX2                !
 ! D80   D(19,8,30,37)         162.8755         estimate D2E/DX2                !
 ! D81   D(8,9,25,12)           -2.2145         estimate D2E/DX2                !
 ! D82   D(8,9,25,26)          177.8857         estimate D2E/DX2                !
 ! D83   D(14,9,25,12)         178.1446         estimate D2E/DX2                !
 ! D84   D(14,9,25,26)          -1.7552         estimate D2E/DX2                !
 ! D85   D(17,10,11,13)        171.3446         estimate D2E/DX2                !
 ! D86   D(17,10,11,24)         -9.9595         estimate D2E/DX2                !
 ! D87   D(28,10,11,13)        -12.7678         estimate D2E/DX2                !
 ! D88   D(28,10,11,24)        165.9282         estimate D2E/DX2                !
 ! D89   D(11,10,17,1)           7.5101         estimate D2E/DX2                !
 ! D90   D(11,10,17,73)       -171.5525         estimate D2E/DX2                !
 ! D91   D(28,10,17,1)        -168.2703         estimate D2E/DX2                !
 ! D92   D(28,10,17,73)         12.6672         estimate D2E/DX2                !
 ! D93   D(11,10,28,12)       -164.2844         estimate D2E/DX2                !
 ! D94   D(11,10,28,43)         13.9856         estimate D2E/DX2                !
 ! D95   D(17,10,28,12)         10.7651         estimate D2E/DX2                !
 ! D96   D(17,10,28,43)       -170.9649         estimate D2E/DX2                !
 ! D97   D(10,11,24,1)           8.9463         estimate D2E/DX2                !
 ! D98   D(10,11,24,49)       -172.6994         estimate D2E/DX2                !
 ! D99   D(13,11,24,1)        -172.3508         estimate D2E/DX2                !
 ! D100  D(13,11,24,49)          6.0035         estimate D2E/DX2                !
 ! D101  D(25,12,19,8)           0.4867         estimate D2E/DX2                !
 ! D102  D(25,12,19,73)        178.9042         estimate D2E/DX2                !
 ! D103  D(28,12,19,8)        -178.6682         estimate D2E/DX2                !
 ! D104  D(28,12,19,73)         -0.2506         estimate D2E/DX2                !
 ! D105  D(19,12,25,9)           1.2009         estimate D2E/DX2                !
 ! D106  D(19,12,25,26)       -178.8988         estimate D2E/DX2                !
 ! D107  D(28,12,25,9)        -179.6559         estimate D2E/DX2                !
 ! D108  D(28,12,25,26)          0.2443         estimate D2E/DX2                !
 ! D109  D(19,12,28,10)        -17.0062         estimate D2E/DX2                !
 ! D110  D(19,12,28,43)        164.7779         estimate D2E/DX2                !
 ! D111  D(25,12,28,10)        164.0034         estimate D2E/DX2                !
 ! D112  D(25,12,28,43)        -14.2125         estimate D2E/DX2                !
 ! D113  D(5,16,73,17)        -156.8532         estimate D2E/DX2                !
 ! D114  D(5,16,73,18)          23.1376         estimate D2E/DX2                !
 ! D115  D(7,16,73,17)          22.2917         estimate D2E/DX2                !
 ! D116  D(7,16,73,18)        -157.7175         estimate D2E/DX2                !
 ! D117  D(1,17,73,16)         -22.0296         estimate D2E/DX2                !
 ! D118  D(1,17,73,19)         159.7665         estimate D2E/DX2                !
 ! D119  D(10,17,73,16)        156.8571         estimate D2E/DX2                !
 ! D120  D(10,17,73,19)        -21.3468         estimate D2E/DX2                !
 ! D121  D(2,18,73,16)         164.6033         estimate D2E/DX2                !
 ! D122  D(2,18,73,19)         -17.1929         estimate D2E/DX2                !
 ! D123  D(4,18,73,16)         -17.3543         estimate D2E/DX2                !
 ! D124  D(4,18,73,19)         160.8494         estimate D2E/DX2                !
 ! D125  D(8,19,73,17)        -165.9026         estimate D2E/DX2                !
 ! D126  D(8,19,73,18)          14.1066         estimate D2E/DX2                !
 ! D127  D(12,19,73,17)         15.9364         estimate D2E/DX2                !
 ! D128  D(12,19,73,18)       -164.0544         estimate D2E/DX2                !
 ! D129  D(1,24,49,69)         -29.9133         estimate D2E/DX2                !
 ! D130  D(1,24,49,72)         149.9209         estimate D2E/DX2                !
 ! D131  D(11,24,49,69)        152.0193         estimate D2E/DX2                !
 ! D132  D(11,24,49,72)        -28.1465         estimate D2E/DX2                !
 ! D133  D(10,28,43,44)       -105.202          estimate D2E/DX2                !
 ! D134  D(10,28,43,45)         74.3081         estimate D2E/DX2                !
 ! D135  D(12,28,43,44)         73.0688         estimate D2E/DX2                !
 ! D136  D(12,28,43,45)       -107.4211         estimate D2E/DX2                !
 ! D137  D(4,29,31,32)         -71.2606         estimate D2E/DX2                !
 ! D138  D(4,29,31,33)         109.2918         estimate D2E/DX2                !
 ! D139  D(5,29,31,32)         106.7076         estimate D2E/DX2                !
 ! D140  D(5,29,31,33)         -72.74           estimate D2E/DX2                !
 ! D141  D(2,30,37,38)          72.6851         estimate D2E/DX2                !
 ! D142  D(2,30,37,39)        -107.5345         estimate D2E/DX2                !
 ! D143  D(8,30,37,38)        -109.4821         estimate D2E/DX2                !
 ! D144  D(8,30,37,39)          70.2984         estimate D2E/DX2                !
 ! D145  D(29,31,32,34)       -175.624          estimate D2E/DX2                !
 ! D146  D(29,31,32,56)          2.0001         estimate D2E/DX2                !
 ! D147  D(33,31,32,34)          3.8236         estimate D2E/DX2                !
 ! D148  D(33,31,32,56)       -178.5523         estimate D2E/DX2                !
 ! D149  D(29,31,33,35)       -178.3726         estimate D2E/DX2                !
 ! D150  D(29,31,33,52)         -0.4511         estimate D2E/DX2                !
 ! D151  D(32,31,33,35)          2.1941         estimate D2E/DX2                !
 ! D152  D(32,31,33,52)       -179.8843         estimate D2E/DX2                !
 ! D153  D(31,32,34,36)         -6.2607         estimate D2E/DX2                !
 ! D154  D(31,32,34,55)        173.1803         estimate D2E/DX2                !
 ! D155  D(56,32,34,36)        176.1424         estimate D2E/DX2                !
 ! D156  D(56,32,34,55)         -4.4166         estimate D2E/DX2                !
 ! D157  D(31,33,35,36)         -5.7384         estimate D2E/DX2                !
 ! D158  D(31,33,35,53)        173.9232         estimate D2E/DX2                !
 ! D159  D(52,33,35,36)        176.3283         estimate D2E/DX2                !
 ! D160  D(52,33,35,53)         -4.0101         estimate D2E/DX2                !
 ! D161  D(32,34,36,35)          2.6948         estimate D2E/DX2                !
 ! D162  D(32,34,36,54)       -177.2626         estimate D2E/DX2                !
 ! D163  D(55,34,36,35)       -176.7428         estimate D2E/DX2                !
 ! D164  D(55,34,36,54)          3.2999         estimate D2E/DX2                !
 ! D165  D(33,35,36,34)          3.3319         estimate D2E/DX2                !
 ! D166  D(33,35,36,54)       -176.7108         estimate D2E/DX2                !
 ! D167  D(53,35,36,34)       -176.3301         estimate D2E/DX2                !
 ! D168  D(53,35,36,54)          3.6272         estimate D2E/DX2                !
 ! D169  D(30,37,38,40)        177.2202         estimate D2E/DX2                !
 ! D170  D(30,37,38,57)         -0.6079         estimate D2E/DX2                !
 ! D171  D(39,37,38,40)         -2.5578         estimate D2E/DX2                !
 ! D172  D(39,37,38,57)        179.6141         estimate D2E/DX2                !
 ! D173  D(30,37,39,41)        176.8837         estimate D2E/DX2                !
 ! D174  D(30,37,39,61)         -0.8668         estimate D2E/DX2                !
 ! D175  D(38,37,39,41)         -3.3369         estimate D2E/DX2                !
 ! D176  D(38,37,39,61)        178.9126         estimate D2E/DX2                !
 ! D177  D(37,38,40,42)          5.701          estimate D2E/DX2                !
 ! D178  D(37,38,40,58)       -173.8129         estimate D2E/DX2                !
 ! D179  D(57,38,40,42)       -176.4602         estimate D2E/DX2                !
 ! D180  D(57,38,40,58)          4.0258         estimate D2E/DX2                !
 ! D181  D(37,39,41,42)          6.0751         estimate D2E/DX2                !
 ! D182  D(37,39,41,60)       -173.528          estimate D2E/DX2                !
 ! D183  D(61,39,41,42)       -176.1918         estimate D2E/DX2                !
 ! D184  D(61,39,41,60)          4.2052         estimate D2E/DX2                !
 ! D185  D(38,40,42,41)         -2.9892         estimate D2E/DX2                !
 ! D186  D(38,40,42,59)        176.9756         estimate D2E/DX2                !
 ! D187  D(58,40,42,41)        176.5255         estimate D2E/DX2                !
 ! D188  D(58,40,42,59)         -3.5097         estimate D2E/DX2                !
 ! D189  D(39,41,42,40)         -2.919          estimate D2E/DX2                !
 ! D190  D(39,41,42,59)        177.1162         estimate D2E/DX2                !
 ! D191  D(60,41,42,40)        176.6826         estimate D2E/DX2                !
 ! D192  D(60,41,42,59)         -3.2822         estimate D2E/DX2                !
 ! D193  D(28,43,44,46)        176.0533         estimate D2E/DX2                !
 ! D194  D(28,43,44,62)         -1.5513         estimate D2E/DX2                !
 ! D195  D(45,43,44,46)         -3.4532         estimate D2E/DX2                !
 ! D196  D(45,43,44,62)        178.9422         estimate D2E/DX2                !
 ! D197  D(28,43,45,47)        177.8281         estimate D2E/DX2                !
 ! D198  D(28,43,45,66)         -0.0088         estimate D2E/DX2                !
 ! D199  D(44,43,45,47)         -2.6742         estimate D2E/DX2                !
 ! D200  D(44,43,45,66)        179.4889         estimate D2E/DX2                !
 ! D201  D(43,44,46,48)          6.2307         estimate D2E/DX2                !
 ! D202  D(43,44,46,63)       -173.2415         estimate D2E/DX2                !
 ! D203  D(62,44,46,48)       -176.1889         estimate D2E/DX2                !
 ! D204  D(62,44,46,63)          4.3389         estimate D2E/DX2                !
 ! D205  D(43,45,47,48)          5.9741         estimate D2E/DX2                !
 ! D206  D(43,45,47,65)       -173.6279         estimate D2E/DX2                !
 ! D207  D(66,45,47,48)       -176.1824         estimate D2E/DX2                !
 ! D208  D(66,45,47,65)          4.2156         estimate D2E/DX2                !
 ! D209  D(44,46,48,47)         -2.9169         estimate D2E/DX2                !
 ! D210  D(44,46,48,64)        177.0712         estimate D2E/DX2                !
 ! D211  D(63,46,48,47)        176.5523         estimate D2E/DX2                !
 ! D212  D(63,46,48,64)         -3.4597         estimate D2E/DX2                !
 ! D213  D(45,47,48,46)         -3.2244         estimate D2E/DX2                !
 ! D214  D(45,47,48,64)        176.7875         estimate D2E/DX2                !
 ! D215  D(65,47,48,46)        176.3774         estimate D2E/DX2                !
 ! D216  D(65,47,48,64)         -3.6107         estimate D2E/DX2                !
 ! D217  D(24,49,69,50)       -174.1591         estimate D2E/DX2                !
 ! D218  D(24,49,69,51)          4.4724         estimate D2E/DX2                !
 ! D219  D(72,49,69,50)          5.9919         estimate D2E/DX2                !
 ! D220  D(72,49,69,51)       -175.3766         estimate D2E/DX2                !
 ! D221  D(24,49,72,70)        172.7738         estimate D2E/DX2                !
 ! D222  D(69,49,72,70)         -7.3701         estimate D2E/DX2                !
 ! D223  D(67,50,69,49)        178.1417         estimate D2E/DX2                !
 ! D224  D(67,50,69,51)         -0.4981         estimate D2E/DX2                !
 ! D225  D(70,50,69,49)         -1.0656         estimate D2E/DX2                !
 ! D226  D(70,50,69,51)       -179.7054         estimate D2E/DX2                !
 ! D227  D(67,50,70,71)         -3.8685         estimate D2E/DX2                !
 ! D228  D(67,50,70,72)        176.4232         estimate D2E/DX2                !
 ! D229  D(69,50,70,71)        175.3411         estimate D2E/DX2                !
 ! D230  D(69,50,70,72)         -4.3672         estimate D2E/DX2                !
 ! D231  D(50,70,72,49)          6.6678         estimate D2E/DX2                !
 ! D232  D(71,70,72,49)       -173.0444         estimate D2E/DX2                !
 --------------------------------------------------------------------------------
 Trust Radius=3.00D-01 FncErr=1.00D-07 GrdErr=1.00D-06 EigMax=2.50D+02 EigMin=1.00D-04
 Number of steps in this run=    444 maximum allowed number of steps=    444.
 GradGradGradGradGradGradGradGradGradGradGradGradGradGradGradGradGradGrad

 Leave Link  103 at Wed Oct 20 15:46:09 2021, MaxMem= 13421772800 cpu:               0.8 elap:               0.1
 (Enter /local/apl/lx/g16c01/g16/l202.exe)
 Stoichiometry    C42H10F15N4OPtS(1-)
 Framework group  C1[X(C42H10F15N4OPtS)]
 Deg. of freedom   216
 Full point group                 C1      NOp   1
 Largest Abelian subgroup         C1      NOp   1
 Largest concise Abelian subgroup C1      NOp   1
                         Standard orientation:                         
 ---------------------------------------------------------------------
 Center     Atomic      Atomic             Coordinates (Angstroms)
 Number     Number       Type             X           Y           Z
 ---------------------------------------------------------------------
      1          6           0       -1.968533   -2.257367   -1.300473
      2          6           0        2.206347    1.689989   -0.188167
      3          6           0        4.274505    0.634515    0.196787
      4          6           0        3.141140   -0.372290    0.065314
      5          6           0        2.228713   -2.513454   -0.310673
      6          6           0        1.255611   -4.218892   -1.348340
      7          6           0        0.382909   -3.140375   -1.393373
      8          6           0       -0.051464    2.576800    0.025224
      9          6           0       -1.069077    3.687042    0.377605
     10          6           0       -2.866207   -0.598466   -0.100155
     11          6           0       -3.865896   -1.533916   -0.324047
     12          6           0       -2.097752    1.611116    0.353675
     13          1           0       -4.862072   -1.512988    0.061322
     14          1           0       -0.857258    4.733611    0.438472
     15          1           0        5.295940    0.414465    0.424036
     16          7           0        0.914839   -2.113866   -0.754640
     17          7           0       -1.658820   -1.138110   -0.639950
     18          7           0        1.907931    0.398282   -0.182998
     19          7           0       -0.696767    1.391888   -0.002250
     20          6           0        3.735053    1.856272   -0.016145
     21          1           0        4.268534    2.780744   -0.034057
     22          6           0        2.346217   -3.870753   -0.560018
     23          1           0        3.129367   -4.518382   -0.233619
     24          6           0       -3.327627   -2.494520   -1.176099
     25          6           0       -2.272069    3.105743    0.603554
     26          1           0       -3.173711    3.597299    0.898864
     27          6           0       -0.994886   -3.173854   -2.007682
     28          6           0       -3.050523    0.651249    0.457155
     29          6           0        3.230740   -1.715258    0.182769
     30          6           0        1.311082    2.764771   -0.248470
     31          6           0        4.444580   -2.381377    0.812353
     32          6           0        5.635231   -2.373834    0.107998
     33          6           0        4.355997   -2.999379    2.072784
     34          6           0        6.741251   -3.054059    0.614784
     35          6           0        5.501409   -3.572821    2.637500
     36          6           0        6.685942   -3.630344    1.891528
     37          6           0        1.832425    4.164967   -0.566906
     38          6           0        2.248192    4.481156   -1.871938
     39          6           0        1.886548    5.119308    0.441651
     40          6           0        2.669288    5.784141   -2.166452
     41          6           0        2.422924    6.381158    0.173066
     42          6           0        2.786150    6.725198   -1.136065
     43          6           0       -4.368451    0.930068    1.154181
     44          6           0       -5.299351    1.731709    0.514840
     45          6           0       -4.634768    0.375625    2.414151
     46          6           0       -6.548254    1.933442    1.099103
     47          6           0       -5.837149    0.683671    3.057035
     48          6           0       -6.808859    1.435945    2.383740
     49          6           0       -4.100933   -3.631287   -1.822626
     50          6           0       -4.901612   -5.254520   -3.408101
     51          1           0       -2.931516   -4.023842   -3.597668
     52          9           0        3.188431   -3.005639    2.755917
     53          9           0        5.468017   -4.062104    3.896904
     54          9           0        7.774980   -4.239654    2.401403
     55          9           0        7.857151   -3.163762   -0.132713
     56          9           0        5.698925   -1.748188   -1.085614
     57          9           0        2.202145    3.548777   -2.850621
     58          9           0        2.952477    6.136030   -3.440082
     59          9           0        3.249146    7.963448   -1.402761
     60          9           0        2.597134    7.262952    1.178228
     61          9           0        1.463091    4.805604    1.683089
     62          9           0       -5.006208    2.268889   -0.688132
     63          9           0       -7.504186    2.597930    0.420108
     64          9           0       -7.996363    1.682411    2.971459
     65          9           0       -6.057389    0.265443    4.322511
     66          9           0       -3.720834   -0.414221    3.023319
     67          1           0       -4.887577   -5.822948   -4.312986
     68          8           0       -1.318352   -3.941904   -2.953068
     69          6           0       -3.801850   -4.236756   -3.005486
     70          6           0       -5.898605   -5.328912   -2.482900
     71          1           0       -6.786911   -5.907735   -2.586748
     72         16           0       -5.536522   -4.330578   -1.079346
     73         78           0        0.137253   -0.364405   -0.410000
     74          1           0        1.111346   -5.169453   -1.817937
 ---------------------------------------------------------------------
 Rotational constants (GHZ):           0.0342069           0.0251236           0.0176652
 Leave Link  202 at Wed Oct 20 15:46:11 2021, MaxMem= 13421772800 cpu:               0.1 elap:               0.0
 (Enter /local/apl/lx/g16c01/g16/l301.exe)
 General basis read from cards:  (5D, 7F)
 Centers:      73
 LanL2DZ
 ****
 Centers:      13     14     15     21     23     26     51     67     71     74
 Centers:       1      2      3      4      5      6      7      8      9     10
 Centers:      11     12     20     22     24     25     27     28     29     30
 Centers:      31     32     33     34     35     36     37     38     39     40
 Centers:      41     42     43     44     45     46     47     48     49     50
 Centers:      69     70     16     17     18     19     68     72     52     53
 Centers:      54     55     56     57     58     59     60     61     62     63
 Centers:      64     65     66
 6-31+g(d,p)
 ****
 ======================================================================================================
                                       Pseudopotential Parameters
 ======================================================================================================
  Center     Atomic      Valence      Angular      Power
  Number     Number     Electrons     Momentum     of R      Exponent        Coefficient   SO-Coeffient
 ======================================================================================================
    1          6
                                   No pseudopotential on this center.
    2          6
                                   No pseudopotential on this center.
    3          6
                                   No pseudopotential on this center.
    4          6
                                   No pseudopotential on this center.
    5          6
                                   No pseudopotential on this center.
    6          6
                                   No pseudopotential on this center.
    7          6
                                   No pseudopotential on this center.
    8          6
                                   No pseudopotential on this center.
    9          6
                                   No pseudopotential on this center.
   10          6
                                   No pseudopotential on this center.
   11          6
                                   No pseudopotential on this center.
   12          6
                                   No pseudopotential on this center.
   13          1
                                   No pseudopotential on this center.
   14          1
                                   No pseudopotential on this center.
   15          1
                                   No pseudopotential on this center.
   16          7
                                   No pseudopotential on this center.
   17          7
                                   No pseudopotential on this center.
   18          7
                                   No pseudopotential on this center.
   19          7
                                   No pseudopotential on this center.
   20          6
                                   No pseudopotential on this center.
   21          1
                                   No pseudopotential on this center.
   22          6
                                   No pseudopotential on this center.
   23          1
                                   No pseudopotential on this center.
   24          6
                                   No pseudopotential on this center.
   25          6
                                   No pseudopotential on this center.
   26          1
                                   No pseudopotential on this center.
   27          6
                                   No pseudopotential on this center.
   28          6
                                   No pseudopotential on this center.
   29          6
                                   No pseudopotential on this center.
   30          6
                                   No pseudopotential on this center.
   31          6
                                   No pseudopotential on this center.
   32          6
                                   No pseudopotential on this center.
   33          6
                                   No pseudopotential on this center.
   34          6
                                   No pseudopotential on this center.
   35          6
                                   No pseudopotential on this center.
   36          6
                                   No pseudopotential on this center.
   37          6
                                   No pseudopotential on this center.
   38          6
                                   No pseudopotential on this center.
   39          6
                                   No pseudopotential on this center.
   40          6
                                   No pseudopotential on this center.
   41          6
                                   No pseudopotential on this center.
   42          6
                                   No pseudopotential on this center.
   43          6
                                   No pseudopotential on this center.
   44          6
                                   No pseudopotential on this center.
   45          6
                                   No pseudopotential on this center.
   46          6
                                   No pseudopotential on this center.
   47          6
                                   No pseudopotential on this center.
   48          6
                                   No pseudopotential on this center.
   49          6
                                   No pseudopotential on this center.
   50          6
                                   No pseudopotential on this center.
   51          1
                                   No pseudopotential on this center.
   52          9
                                   No pseudopotential on this center.
   53          9
                                   No pseudopotential on this center.
   54          9
                                   No pseudopotential on this center.
   55          9
                                   No pseudopotential on this center.
   56          9
                                   No pseudopotential on this center.
   57          9
                                   No pseudopotential on this center.
   58          9
                                   No pseudopotential on this center.
   59          9
                                   No pseudopotential on this center.
   60          9
                                   No pseudopotential on this center.
   61          9
                                   No pseudopotential on this center.
   62          9
                                   No pseudopotential on this center.
   63          9
                                   No pseudopotential on this center.
   64          9
                                   No pseudopotential on this center.
   65          9
                                   No pseudopotential on this center.
   66          9
                                   No pseudopotential on this center.
   67          1
                                   No pseudopotential on this center.
   68          8
                                   No pseudopotential on this center.
   69          6
                                   No pseudopotential on this center.
   70          6
                                   No pseudopotential on this center.
   71          1
                                   No pseudopotential on this center.
   72         16
                                   No pseudopotential on this center.
   73         78           18
                                      G and up 
                                                     1      728.9394056       -0.16192680    0.00000000
                                                     2      320.6567800    -1320.28738520    0.00000000
                                                     2       52.8680174     -298.31781350    0.00000000
                                                     2       12.0280128      -87.58370650    0.00000000
                                                     2        3.5238913       -8.14932740    0.00000000
                                      S - G
                                                     0      409.4437358        2.73342180    0.00000000
                                                     1      274.5419231       59.70243290    0.00000000
                                                     2      127.5658570      891.45895500    0.00000000
                                                     2       32.9036631      368.44676560    0.00000000
                                                     2        5.0593880      238.02630900    0.00000000
                                                     2        4.1506556     -107.05564540    0.00000000
                                      P - G
                                                     0      466.1728892        1.88785680    0.00000000
                                                     1      120.7888259       76.01386290    0.00000000
                                                     2       36.4118791      343.55111160    0.00000000
                                                     2        5.6985408      119.49117860    0.00000000
                                      D - G
                                                     0      249.5650763        2.93436780    0.00000000
                                                     1      126.6678585       59.33065710    0.00000000
                                                     2       63.1430586      452.44451940    0.00000000
                                                     2       17.9059470      210.47694790    0.00000000
                                                     2        4.2239373       58.62541120    0.00000000
                                      F - G
                                                     0      121.8158799        3.95342530    0.00000000
                                                     1       60.8757030       53.85551820    0.00000000
                                                     2       31.4767147      247.43051330    0.00000000
                                                     2        9.8811751      127.81879760    0.00000000
                                                     2        2.7319874       15.37720460    0.00000000
   74          1
                                   No pseudopotential on this center.
 ======================================================================================================
 Ernie: Thresh=  0.10000D-02 Tol=  0.10000D-05 Strict=F.
 Ernie:  1 primitive shells out of 829 were deleted.
 There are  1275 symmetry adapted cartesian basis functions of A   symmetry.
 There are  1210 symmetry adapted basis functions of A   symmetry.
  1210 basis functions,  2153 primitive gaussians,  1275 cartesian basis functions
   234 alpha electrons      234 beta electrons
       nuclear repulsion energy     10142.4276675874 Hartrees.
 IExCor=  402 DFT=T Ex+Corr=B3LYP ExCW=0 ScaHFX=  0.200000
 ScaDFX=  0.800000  0.720000  1.000000  0.810000 ScalE2=  1.000000  1.000000
 IRadAn=      5 IRanWt=     -1 IRanGd=            0 ICorTp=0 IEmpDi=  4
 NAtoms=   74 NActive=   74 NUniq=   74 SFac= 1.00D+00 NAtFMM=   60 NAOKFM=T Big=T
 Integral buffers will be    131072 words long.
 Raffenetti 2 integral format.
 Two-electron integral symmetry is turned on.
 Leave Link  301 at Wed Oct 20 15:46:11 2021, MaxMem= 13421772800 cpu:               1.9 elap:               0.1
 (Enter /local/apl/lx/g16c01/g16/l302.exe)
 NPDir=0 NMtPBC=     1 NCelOv=     1 NCel=       1 NClECP=     1 NCelD=      1
         NCelK=      1 NCelE2=     1 NClLst=     1 CellRange=     0.0.
 One-electron integrals computed using PRISM.
 One-electron integral symmetry used in STVInt
   1 Symmetry operations used in ECPInt.
 ECPInt:  NShTT=   62835 NPrTT=  344396 LenC2=   43578 LenP2D=  125852.
 LDataN:  DoStor=T MaxTD1= 6 Len=  172
 NBasis=  1210 RedAO= T EigKep=  1.01D-06  NBF=  1210
 NBsUse=  1195 1.00D-06 EigRej=  6.34D-07 NBFU=  1195
 Precomputing XC quadrature grid using
 IXCGrd= 4 IRadAn=           5 IRanWt=          -1 IRanGd=           0 AccXCQ= 0.00D+00.
 Defaulting to unpruned grid for atomic number  78.
 Generated NRdTot=       0 NPtTot=           0 NUsed=           0 NTot=          32
 NSgBfM=  1219  1219  1219  1219  1219 MxSgAt=    74 MxSgA2=    74.
 Leave Link  302 at Wed Oct 20 15:46:16 2021, MaxMem= 13421772800 cpu:              51.5 elap:               3.2
 (Enter /local/apl/lx/g16c01/g16/l303.exe)
 DipDrv:  MaxL=1.
 Leave Link  303 at Wed Oct 20 15:46:16 2021, MaxMem= 13421772800 cpu:               4.6 elap:               0.3
 (Enter /local/apl/lx/g16c01/g16/l401.exe)
 ExpMin= 2.90D-02 ExpMax= 2.19D+04 ExpMxC= 3.30D+03 IAcc=3 IRadAn=         5 AccDes= 0.00D+00
 Harris functional with IExCor=  402 and IRadAn=       5 diagonalized for initial guess.
 HarFok:  IExCor=  402 AccDes= 0.00D+00 IRadAn=         5 IDoV= 1 UseB2=F ITyADJ=14
 ICtDFT=  3500011 ScaDFX=  1.000000  1.000000  1.000000  1.000000
 Defaulting to unpruned grid for atomic number  78.
 FoFCou: FMM=F IPFlag=           0 FMFlag=      100000 FMFlg1=        2001
         NFxFlg=           0 DoJE=T BraDBF=F KetDBF=T FulRan=T
         wScrn=  0.000000 ICntrl=       500 IOpCl=  0 I1Cent=   200000004 NGrid=           0
         NMat0=    1 NMatS0=      1 NMatT0=    0 NMatD0=    1 NMtDS0=    0 NMtDT0=    0
 Petite list used in FoFCou.
 Harris En= -3915.32485597681    
 JPrj=0 DoOrth=F DoCkMO=F.
 Leave Link  401 at Wed Oct 20 15:46:24 2021, MaxMem= 13421772800 cpu:             106.8 elap:               6.7
 (Enter /local/apl/lx/g16c01/g16/l502.exe)
 Integral symmetry usage will be decided dynamically.
 Closed shell SCF:
 Using DIIS extrapolation, IDIIS=  1040.
 NGot= 13421772800 LenX= 13418487774 LenY= 13416860874
 Requested convergence on RMS density matrix=1.00D-08 within1000 cycles.
 Requested convergence on MAX density matrix=1.00D-06.
 Requested convergence on             energy=1.00D-06.
 No special actions if energy rises.
 Fock matrices will be formed incrementally for  20 cycles.

 Cycle   1  Pass 1  IDiag  1:
 FoFJK:  IHMeth= 1 ICntrl=       0 DoSepK=F KAlg= 0 I1Cent=           0 FoldK=F
 IRaf= 760000000 NMat=       1 IRICut=       1 DoRegI=T DoRafI=F ISym2E= 0 IDoP0=0 IntGTp=1.
 FoFCou: FMM=T IPFlag=           0 FMFlag=      100000 FMFlg1=        2001
         NFxFlg=           0 DoJE=F BraDBF=F KetDBF=F FulRan=T
         wScrn=  0.000000 ICntrl=         0 IOpCl=  0 I1Cent=           0 NGrid=           0
         NMat0=    1 NMatS0=      1 NMatT0=    0 NMatD0=    1 NMtDS0=    0 NMtDT0=    0
 Symmetry not used in FoFCou.
 FMM levels:  10  Number of levels for PrismC:   9
 Defaulting to unpruned grid for atomic number  78.
 Defaulting to unpruned grid for atomic number  78.
 Defaulting to unpruned grid for atomic number  78.
 Defaulting to unpruned grid for atomic number  78.
 Defaulting to unpruned grid for atomic number  78.
 Defaulting to unpruned grid for atomic number  78.
 Defaulting to unpruned grid for atomic number  78.
 Defaulting to unpruned grid for atomic number  78.
 Defaulting to unpruned grid for atomic number  78.
 Defaulting to unpruned grid for atomic number  78.
 Defaulting to unpruned grid for atomic number  78.
 Defaulting to unpruned grid for atomic number  78.
 Defaulting to unpruned grid for atomic number  78.
 Defaulting to unpruned grid for atomic number  78.
 Defaulting to unpruned grid for atomic number  78.
 Defaulting to unpruned grid for atomic number  78.
 E= -3911.32348013745    
 DIIS: error= 6.52D-02 at cycle   1 NSaved=   1.
 NSaved= 1 IEnMin= 1 EnMin= -3911.32348013745     IErMin= 1 ErrMin= 6.52D-02
 ErrMax= 6.52D-02  0.00D+00 EMaxC= 1.00D-01 BMatC= 4.11D+00 BMatP= 4.11D+00
 IDIUse=3 WtCom= 3.48D-01 WtEn= 6.52D-01
 Coeff-Com:  0.100D+01
 Coeff-En:   0.100D+01
 Coeff:      0.100D+01
 Gap=     1.142 Goal=   None    Shift=    0.000
 GapD=    1.142 DampG=2.000 DampE=0.250 DampFc=0.5000 IDamp=-1.
 Damping current iteration by 5.00D-01
 RMSDP=3.28D+00 MaxDP=6.63D+02              OVMax= 8.77D-01

 Cycle   2  Pass 1  IDiag  1:
 RMSU=  1.59D+00    CP:  3.00D+00
 E= -3905.34969659142     Delta-E=        5.973783546038 Rises=F Damp=T
 DIIS: error= 4.30D-02 at cycle   2 NSaved=   2.
 NSaved= 2 IEnMin= 1 EnMin= -3911.32348013745     IErMin= 2 ErrMin= 4.30D-02
 ErrMax= 4.30D-02  0.00D+00 EMaxC= 1.00D-01 BMatC= 3.73D+00 BMatP= 4.11D+00
 IDIUse=3 WtCom= 5.70D-01 WtEn= 4.30D-01
 Coeff-Com:  0.483D+00 0.517D+00
 Coeff-En:   0.711D+00 0.289D+00
 Coeff:      0.581D+00 0.419D+00
 Gap=     0.064 Goal=   None    Shift=    0.000
 RMSDP=1.37D+00 MaxDP=1.93D+02 DE= 5.97D+00 OVMax= 9.59D-01

 Cycle   3  Pass 1  IDiag  1:
 RMSU=  3.70D-01    CP:  2.75D+00  1.76D-01
 E= -3891.27292408111     Delta-E=       14.076772510301 Rises=F Damp=F
 DIIS: error= 7.01D-02 at cycle   3 NSaved=   3.
 NSaved= 3 IEnMin= 1 EnMin= -3911.32348013745     IErMin= 2 ErrMin= 4.30D-02
 ErrMax= 7.01D-02  0.00D+00 EMaxC= 1.00D-01 BMatC= 1.16D+01 BMatP= 3.73D+00
 IDIUse=2 WtCom= 0.00D+00 WtEn= 1.00D+00
 EnCoef did     3 forward-backward iterations
 Coeff-En:   0.609D+00 0.288D+00 0.104D+00
 Coeff:      0.609D+00 0.288D+00 0.104D+00
 Gap=    -0.258 Goal=   None    Shift=    0.000
 RMSDP=3.88D-01 MaxDP=1.38D+02 DE= 1.41D+01 OVMax= 8.00D-01

 Cycle   4  Pass 1  IDiag  1:
 RMSU=  8.34D-02    CP:  1.58D+00  1.06D-01  5.96D-02
[...]
 Alpha virt. eigenvalues --    0.50396   0.50607   0.50666   0.50998   0.51217
 Alpha virt. eigenvalues --    0.51442   0.51731   0.51925   0.52258   0.52368
 Alpha virt. eigenvalues --    0.52673   0.52980   0.53240   0.53644   0.53767
 Alpha virt. eigenvalues --    0.53889   0.54255   0.54358   0.54516   0.54778
 Alpha virt. eigenvalues --    0.54894   0.55535   0.55783   0.56333   0.56581
 Alpha virt. eigenvalues --    0.57186   0.57243   0.57513   0.57957   0.58123
 Alpha virt. eigenvalues --    0.58177   0.58380   0.58601   0.58827   0.59009
 Alpha virt. eigenvalues --    0.59302   0.59981   0.60305   0.60512   0.60690
 Alpha virt. eigenvalues --    0.60812   0.60968   0.61202   0.61288   0.62094
 Alpha virt. eigenvalues --    0.62729   0.63096   0.63538   0.63623   0.63783
 Alpha virt. eigenvalues --    0.64236   0.64390   0.65116   0.65558   0.65575
 Alpha virt. eigenvalues --    0.65991   0.67021   0.67135   0.67746   0.67963
 Alpha virt. eigenvalues --    0.68128   0.68302   0.68465   0.68696   0.68853
 Alpha virt. eigenvalues --    0.69810   0.69909   0.71048   0.72031   0.72639
 Alpha virt. eigenvalues --    0.72937   0.73281   0.73805   0.74157   0.74475
 Alpha virt. eigenvalues --    0.75245   0.75302   0.76528   0.76895   0.77001
 Alpha virt. eigenvalues --    0.77167   0.77560   0.77683   0.77946   0.78176
 Alpha virt. eigenvalues --    0.78241   0.78890   0.79160   0.79271   0.79644
 Alpha virt. eigenvalues --    0.80172   0.80635   0.81237   0.81490   0.81700
 Alpha virt. eigenvalues --    0.82540   0.83194   0.83580   0.83845   0.84235
 Alpha virt. eigenvalues --    0.84569   0.85254   0.85343   0.85556   0.85838
 Alpha virt. eigenvalues --    0.86086   0.86200   0.86681   0.87070   0.87168
 Alpha virt. eigenvalues --    0.87811   0.88631   0.88744   0.89059   0.89633
 Alpha virt. eigenvalues --    0.89777   0.90035   0.90870   0.91063   0.91298
 Alpha virt. eigenvalues --    0.91413   0.91660   0.91711   0.92070   0.92470
 Alpha virt. eigenvalues --    0.92657   0.93164   0.93538   0.93881   0.94359
 Alpha virt. eigenvalues --    0.95148   0.95182   0.95434   0.95554   0.95728
 Alpha virt. eigenvalues --    0.96006   0.96419   0.97014   0.97200   0.97944
 Alpha virt. eigenvalues --    0.98474   0.98688   0.99065   0.99112   0.99252
 Alpha virt. eigenvalues --    0.99613   1.00142   1.00421   1.00687   1.00990
 Alpha virt. eigenvalues --    1.01387   1.01882   1.01970   1.02133   1.02433
 Alpha virt. eigenvalues --    1.02710   1.02830   1.03118   1.03585   1.03995
 Alpha virt. eigenvalues --    1.04334   1.04948   1.05429   1.05588   1.06430
 Alpha virt. eigenvalues --    1.06611   1.06889   1.07633   1.08402   1.08906
 Alpha virt. eigenvalues --    1.09755   1.11444   1.11750   1.12350   1.12527
 Alpha virt. eigenvalues --    1.12910   1.13330   1.13645   1.14146   1.14660
 Alpha virt. eigenvalues --    1.16180   1.16502   1.17238   1.17566   1.18038
 Alpha virt. eigenvalues --    1.18480   1.19067   1.19481   1.20054   1.20445
 Alpha virt. eigenvalues --    1.20535   1.20999   1.21527   1.21627   1.21913
 Alpha virt. eigenvalues --    1.22106   1.22212   1.22478   1.22738   1.22961
 Alpha virt. eigenvalues --    1.23409   1.23660   1.23723   1.24312   1.25161
 Alpha virt. eigenvalues --    1.25382   1.25683   1.26641   1.26890   1.28059
 Alpha virt. eigenvalues --    1.28115   1.28526   1.28650   1.28703   1.28765
 Alpha virt. eigenvalues --    1.29286   1.30200   1.30766   1.30835   1.31180
 Alpha virt. eigenvalues --    1.31527   1.32211   1.33405   1.34065   1.34162
 Alpha virt. eigenvalues --    1.34291   1.34574   1.34610   1.34686   1.34964
 Alpha virt. eigenvalues --    1.35314   1.35569   1.35707   1.35923   1.36009
 Alpha virt. eigenvalues --    1.36301   1.36665   1.36893   1.37017   1.37378
 Alpha virt. eigenvalues --    1.37640   1.37715   1.38096   1.38724   1.38859
 Alpha virt. eigenvalues --    1.39115   1.39204   1.39456   1.40143   1.40637
 Alpha virt. eigenvalues --    1.41302   1.41666   1.41794   1.42508   1.42696
 Alpha virt. eigenvalues --    1.43157   1.43307   1.43854   1.44028   1.44852
 Alpha virt. eigenvalues --    1.45187   1.45575   1.45908   1.46320   1.46998
 Alpha virt. eigenvalues --    1.47107   1.47548   1.48257   1.48669   1.49349
 Alpha virt. eigenvalues --    1.49798   1.50578   1.50837   1.51437   1.51859
 Alpha virt. eigenvalues --    1.52129   1.52278   1.52530   1.52822   1.53313
 Alpha virt. eigenvalues --    1.53733   1.54351   1.55155   1.55703   1.56531
 Alpha virt. eigenvalues --    1.57914   1.58182   1.59080   1.60831   1.62486
 Alpha virt. eigenvalues --    1.62871   1.63808   1.64982   1.65216   1.65602
 Alpha virt. eigenvalues --    1.65878   1.66072   1.66197   1.66310   1.66479
 Alpha virt. eigenvalues --    1.66574   1.66746   1.66797   1.67108   1.67271
 Alpha virt. eigenvalues --    1.67593   1.67653   1.68091   1.68247   1.68555
 Alpha virt. eigenvalues --    1.69024   1.69234   1.69424   1.69752   1.70056
 Alpha virt. eigenvalues --    1.70160   1.70477   1.70795   1.71302   1.71645
 Alpha virt. eigenvalues --    1.72158   1.72571   1.73062   1.73111   1.73412
 Alpha virt. eigenvalues --    1.73565   1.73648   1.73786   1.73805   1.74340
 Alpha virt. eigenvalues --    1.74649   1.75146   1.75248   1.75490   1.75694
 Alpha virt. eigenvalues --    1.75979   1.76440   1.76676   1.76716   1.76930
 Alpha virt. eigenvalues --    1.77230   1.77343   1.77656   1.78260   1.78658
 Alpha virt. eigenvalues --    1.79138   1.79216   1.79411   1.79494   1.79578
 Alpha virt. eigenvalues --    1.79798   1.79864   1.80034   1.81566   1.81750
 Alpha virt. eigenvalues --    1.81864   1.82214   1.82922   1.83167   1.83261
 Alpha virt. eigenvalues --    1.83563   1.83609   1.83712   1.83963   1.84006
 Alpha virt. eigenvalues --    1.84226   1.84239   1.84487   1.84609   1.84637
 Alpha virt. eigenvalues --    1.85034   1.85191   1.85520   1.85775   1.85901
 Alpha virt. eigenvalues --    1.86086   1.86248   1.86721   1.87261   1.87511
 Alpha virt. eigenvalues --    1.87700   1.87839   1.88101   1.88279   1.88412
 Alpha virt. eigenvalues --    1.88554   1.88843   1.88872   1.89171   1.89205
 Alpha virt. eigenvalues --    1.89348   1.89425   1.89801   1.90084   1.90290
 Alpha virt. eigenvalues --    1.90539   1.90872   1.91343   1.91942   1.92819
 Alpha virt. eigenvalues --    1.93074   1.93290   1.93406   1.93496   1.93648
 Alpha virt. eigenvalues --    1.93735   1.93831   1.94465   1.94687   1.94951
 Alpha virt. eigenvalues --    1.95368   1.95598   1.95819   1.96020   1.96290
 Alpha virt. eigenvalues --    1.97846   1.98142   1.98447   1.98914   1.99180
 Alpha virt. eigenvalues --    1.99309   1.99592   1.99654   2.00141   2.00326
 Alpha virt. eigenvalues --    2.00657   2.01159   2.01325   2.02795   2.02951
 Alpha virt. eigenvalues --    2.03126   2.03290   2.03891   2.04462   2.04686
 Alpha virt. eigenvalues --    2.05143   2.05702   2.06078   2.06614   2.06895
 Alpha virt. eigenvalues --    2.07084   2.07151   2.07523   2.07762   2.08929
 Alpha virt. eigenvalues --    2.09098   2.09487   2.10423   2.10877   2.11256
 Alpha virt. eigenvalues --    2.12045   2.13701   2.14087   2.15276   2.15387
 Alpha virt. eigenvalues --    2.15670   2.16136   2.16345   2.16374   2.17089
 Alpha virt. eigenvalues --    2.17515   2.17922   2.18388   2.18792   2.19959
 Alpha virt. eigenvalues --    2.20528   2.20869   2.21285   2.21305   2.21437
 Alpha virt. eigenvalues --    2.21789   2.21986   2.22536   2.23762   2.24288
 Alpha virt. eigenvalues --    2.24846   2.26011   2.26820   2.27063   2.27234
 Alpha virt. eigenvalues --    2.27319   2.27489   2.27936   2.28038   2.28391
 Alpha virt. eigenvalues --    2.28537   2.28701   2.28947   2.29100   2.29201
 Alpha virt. eigenvalues --    2.29280   2.29403   2.29495   2.29748   2.30755
 Alpha virt. eigenvalues --    2.31057   2.31746   2.32954   2.33277   2.33365
 Alpha virt. eigenvalues --    2.33746   2.34100   2.34405   2.35439   2.35667
 Alpha virt. eigenvalues --    2.35756   2.35963   2.36609   2.37166   2.37617
 Alpha virt. eigenvalues --    2.38303   2.38430   2.38678   2.38778   2.38926
 Alpha virt. eigenvalues --    2.39092   2.39989   2.40280   2.40556   2.41035
 Alpha virt. eigenvalues --    2.41127   2.41673   2.42372   2.42911   2.43354
 Alpha virt. eigenvalues --    2.43793   2.44397   2.44770   2.45194   2.45676
 Alpha virt. eigenvalues --    2.45758   2.46422   2.46591   2.46961   2.47197
 Alpha virt. eigenvalues --    2.47592   2.48366   2.48428   2.48752   2.49507
 Alpha virt. eigenvalues --    2.50551   2.51442   2.52057   2.53410   2.54206
 Alpha virt. eigenvalues --    2.54418   2.54879   2.55714   2.55993   2.56319
 Alpha virt. eigenvalues --    2.57112   2.57618   2.58212   2.58746   2.59337
 Alpha virt. eigenvalues --    2.59753   2.59790   2.59979   2.60219   2.60408
 Alpha virt. eigenvalues --    2.60895   2.61036   2.61418   2.61685   2.61886
 Alpha virt. eigenvalues --    2.62147   2.62475   2.62884   2.63316   2.63658
 Alpha virt. eigenvalues --    2.64666   2.64915   2.65317   2.66204   2.66540
 Alpha virt. eigenvalues --    2.66736   2.66974   2.68295   2.68367   2.68705
 Alpha virt. eigenvalues --    2.69432   2.70834   2.71472   2.72128   2.72773
 Alpha virt. eigenvalues --    2.73766   2.74417   2.74998   2.75494   2.76360
 Alpha virt. eigenvalues --    2.76760   2.77569   2.78016   2.78194   2.78790
 Alpha virt. eigenvalues --    2.79224   2.80083   2.80539   2.81106   2.82200
 Alpha virt. eigenvalues --    2.82311   2.82524   2.82966   2.83401   2.84323
 Alpha virt. eigenvalues --    2.86060   2.87379   2.91031   2.91415   2.91851
 Alpha virt. eigenvalues --    2.93643   2.94089   2.95213   2.96120   2.98136
 Alpha virt. eigenvalues --    2.99731   3.00441   3.01901   3.02661   3.04341
 Alpha virt. eigenvalues --    3.05401   3.05526   3.05634   3.06004   3.06469
 Alpha virt. eigenvalues --    3.07171   3.08870   3.11314   3.11852   3.12103
 Alpha virt. eigenvalues --    3.12434   3.12725   3.13245   3.13958   3.15003
 Alpha virt. eigenvalues --    3.16223   3.17451   3.20750   3.20963   3.21880
 Alpha virt. eigenvalues --    3.22271   3.22549   3.22852   3.24458   3.25581
 Alpha virt. eigenvalues --    3.25921   3.26592   3.28764   3.28965   3.29102
 Alpha virt. eigenvalues --    3.29315   3.29804   3.31380   3.32279   3.33512
 Alpha virt. eigenvalues --    3.34696   3.36912   3.37786   3.40074   3.40264
 Alpha virt. eigenvalues --    3.40579   3.41674   3.41864   3.42683   3.43130
 Alpha virt. eigenvalues --    3.44343   3.46552   3.46664   3.47062   3.47727
 Alpha virt. eigenvalues --    3.51082   3.51467   3.53613   3.56307   3.72209
 Alpha virt. eigenvalues --    3.72427   3.73574   3.74002   3.86653   3.87122
 Alpha virt. eigenvalues --    3.88348   3.89338  19.73961
          Condensed to atoms (all electrons):
 Mulliken charges:
               1
     1  C   -0.030413
     2  C    0.229743
     3  C   -0.042647
     4  C    0.192634
     5  C    0.204028
     6  C   -0.028262
     7  C   -0.092263
     8  C    0.223930
     9  C   -0.107936
    10  C    0.038977
    11  C   -0.216184
    12  C    0.077966
    13  H    0.119516
    14  H    0.114348
    15  H    0.115203
    16  N   -0.104260
    17  N    0.062844
    18  N   -0.080315
    19  N   -0.060045
    20  C   -0.007715
    21  H    0.113566
    22  C    0.047070
    23  H    0.106097
    24  C    0.679083
    25  C   -0.116436
    26  H    0.116942
    27  C    0.055577
    28  C   -0.036165
    29  C   -0.071849
    30  C    0.008822
    31  C   -0.652546
    32  C    0.139438
    33  C    0.160896
    34  C    0.267930
    35  C    0.283765
    36  C    0.528952
    37  C   -0.604343
    38  C    0.061500
    39  C    0.037656
    40  C    0.391416
    41  C    0.371598
    42  C    0.451457
    43  C   -0.727359
    44  C    0.293419
    45  C    0.276013
    46  C    0.159125
    47  C    0.194100
    48  C    0.589822
    49  C   -0.336280
    50  C   -0.214831
    51  H    0.168647
    52  F   -0.281795
    53  F   -0.352005
    54  F   -0.352250
    55  F   -0.351752
    56  F   -0.281630
    57  F   -0.280343
    58  F   -0.355224
    59  F   -0.351168
    60  F   -0.354707
    61  F   -0.280749
    62  F   -0.279814
    63  F   -0.348822
    64  F   -0.352992
    65  F   -0.346906
    66  F   -0.280251
    67  H    0.119593
    68  O   -0.592081
    69  C    0.165567
    70  C   -0.120752
    71  H    0.140905
    72  S   -0.019824
    73  Pt   0.662385
    74  H    0.142385
 Sum of Mulliken charges =  -1.00000
 Mulliken charges with hydrogens summed into heavy atoms:
               1
     1  C   -0.030413
     2  C    0.229743
     3  C    0.072556
     4  C    0.192634
     5  C    0.204028
     6  C    0.114123
     7  C   -0.092263
     8  C    0.223930
     9  C    0.006413
    10  C    0.038977
    11  C   -0.096668
    12  C    0.077966
    16  N   -0.104260
    17  N    0.062844
    18  N   -0.080315
    19  N   -0.060045
    20  C    0.105851
    22  C    0.153167
    24  C    0.679083
    25  C    0.000506
    27  C    0.055577
    28  C   -0.036165
    29  C   -0.071849
    30  C    0.008822
    31  C   -0.652546
    32  C    0.139438
    33  C    0.160896
    34  C    0.267930
    35  C    0.283765
    36  C    0.528952
    37  C   -0.604343
    38  C    0.061500
    39  C    0.037656
    40  C    0.391416
    41  C    0.371598
    42  C    0.451457
    43  C   -0.727359
    44  C    0.293419
    45  C    0.276013
    46  C    0.159125
    47  C    0.194100
    48  C    0.589822
    49  C   -0.336280
    50  C   -0.095238
    52  F   -0.281795
    53  F   -0.352005
    54  F   -0.352250
    55  F   -0.351752
    56  F   -0.281630
    57  F   -0.280343
    58  F   -0.355224
    59  F   -0.351168
    60  F   -0.354707
    61  F   -0.280749
    62  F   -0.279814
    63  F   -0.348822
    64  F   -0.352992
    65  F   -0.346906
    66  F   -0.280251
    68  O   -0.592081
    69  C    0.334213
    70  C    0.020153
    72  S   -0.019824
    73  Pt   0.662385
 Electronic spatial extent (au):  <R**2>=          58881.0904
 Charge=             -1.0000 electrons
 Dipole moment (field-independent basis, Debye):
    X=              2.0287    Y=              5.3105    Z=              0.7022  Tot=              5.7280
 Quadrupole moment (field-independent basis, Debye-Ang):
   XX=           -465.1499   YY=           -452.9814   ZZ=           -414.9085
   XY=             -5.6273   XZ=             -0.8388   YZ=             -2.4413
 Traceless Quadrupole moment (field-independent basis, Debye-Ang):
   XX=            -20.8033   YY=             -8.6348   ZZ=             29.4381
   XY=             -5.6273   XZ=             -0.8388   YZ=             -2.4413
 Octapole moment (field-independent basis, Debye-Ang**2):
  XXX=            143.0369  YYY=              5.7559  ZZZ=            -12.1556  XYY=            -41.5742
  XXY=            100.2346  XXZ=              1.1202  XZZ=             16.5699  YZZ=             -0.3849
  YYZ=             10.3837  XYZ=             19.5977
 Hexadecapole moment (field-independent basis, Debye-Ang**3):
 XXXX=         -47957.7801 YYYY=         -31046.4412 ZZZZ=          -3424.0913 XXXY=           1407.9230
 XXXZ=           -128.1726 YYYX=          -1576.9746 YYYZ=            -16.2881 ZZZX=            -16.0972
 ZZZY=             -6.4851 XXYY=         -12639.8330 XXZZ=          -8461.5494 YYZZ=          -5744.2622
 XXYZ=            -19.3578 YYXZ=            -11.6723 ZZXY=            -89.8108
 N-N= 1.008682865150D+04 E-N=-2.938380847297D+04  KE= 3.812671935918D+03
 No NMR shielding tensors so no spin-rotation constants.
 Leave Link  601 at Wed Oct 20 22:08:38 2021, MaxMem= 13421772800 cpu:              12.9 elap:               1.0
 (Enter /local/apl/lx/g16c01/g16/l9999.exe)
 Unable to Open any file for archive entry.
 1\1\GINC-CCNN543\FOpt\RB3LYP\GenECP\C42H10F15N4O1Pt1S1(1-)\CPI\20-Oct-
 2021\0\\#p opt b3lyp/genecp geom=connectivity scf=maxcyc=1000\\title\\
 -1,1\C,-1.2534028038,-2.7241901119,-0.3318078115\C,1.3031252955,2.8970
 344397,0.0755061071\C,3.5299421923,2.5852756998,0.3014944849\C,2.85175
 85262,1.316791504,0.2184790753\C,2.8332984575,-1.170872134,0.099750812
 9\C,2.5173712371,-3.3840670947,-0.1834929146\C,1.276688687,-2.69204848
 36,-0.2529372448\C,-1.1767093172,2.9210363601,-0.0511894928\C,-2.45174
 57096,3.605861847,-0.0586206948\C,-2.7704012831,-1.1267883834,-0.09096
 12844\C,-3.4665487172,-2.3587704574,-0.1219779045\C,-2.7589251941,1.36
 91051015,-0.0394982527\H,-4.5392958915,-2.473217876,-0.069607227\H,-2.
 583072023,4.6786806228,-0.0652422111\H,4.597091431,2.7161529025,0.4132
 684345\N,1.4713969903,-1.3540762449,-0.0728853956\N,-1.4132393749,-1.3
 651214396,-0.1939154705\N,1.4900023794,1.5387580914,0.0809480976\N,-1.
 389198728,1.5662702678,-0.0526571865\C,2.5812574407,3.5578706537,0.204
 5303173\H,2.7307302546,4.6280307999,0.2276725841\C,3.4898437149,-2.441
 3420075,0.0477884128\H,4.5529419844,-2.6029119426,0.1595593539\C,-2.54
 12263157,-3.3804491054,-0.2749755034\C,-3.4214540449,2.6522491985,-0.0
 415310783\H,-4.4919446814,2.8016545889,-0.035254905\C,0.0262587079,-3.
 3920084084,-0.5048475265\C,-3.3948113622,0.138826743,-0.0282638484\C,3
 .4710046158,0.0738462201,0.2467399372\C,0.0687075681,3.557346202,-0.01
 0025773\C,4.9589018682,0.050895283,0.4195970001\C,5.8297800678,0.09652
 81167,-0.674505695\C,5.5491870743,-0.0305703055,1.6854554447\C,7.21555
 716,0.0664284565,-0.5254127342\C,6.9317196087,-0.0623536902,1.86226227
 06\C,7.76786621,-0.0141744251,0.7501125721\C,0.084685543,5.0528301738,
 -0.0217667834\C,0.1945061228,5.7795690859,-1.2137966054\C,-0.007359354
 6,5.805032272,1.1559266489\C,0.2123677518,7.1734123882,-1.2418447734\C
 ,0.0074337469,7.1990907759,1.156961488\C,0.1179148258,7.8856171428,-0.
 0492850404\C,-4.8917008426,0.1433193871,0.0329075323\C,-5.6774466273,0
 .1520351562,-1.1248743483\C,-5.5769121956,0.1294026489,1.2527522832\C,
 -7.070721513,0.1509541638,-1.0800573803\C,-6.9690967199,0.1270591391,1
 .3256512371\C,-7.718435494,0.1371749451,0.1523434464\C,-2.9332080669,-
 4.7916393519,-0.2891339172\C,-3.2091889219,-7.0855127797,-0.7222884177
 \H,-1.5111411646,-5.8667750332,-1.4900512802\F,4.7811614067,-0.0774468
 112,2.7858245608\F,7.4650109345,-0.1375604139,3.0944952767\F,9.1014423
 512,-0.0426694241,0.9070750209\F,8.0231982455,0.1155681729,-1.59962092
 42\F,5.3411232085,0.1760235975,-1.9226635391\F,0.2866647908,5.13594994
 4,-2.3889359576\F,0.3183561313,7.8366068361,-2.4072480285\F,0.13357861
 45,9.2286226805,-0.0622601073\F,-0.0831092222,7.8871651642,2.309292962
 4\F,-0.11352405,5.186565272,2.3435927187\F,-5.0948210145,0.1681236924,
 -2.3346671502\F,-7.7944477449,0.1653573929,-2.2133730562\F,-9.06025760
 58,0.1378902775,0.2089888842\F,-7.5945345921,0.1174456627,2.5160461784
 \F,-4.8943637768,0.1209416233,2.4091588122\H,-2.9546588756,-8.04974546
 44,-1.150118108\O,0.0830310046,-4.5939186181,-0.8475561905\C,-2.427387
 514,-5.9088063539,-0.9207249507\C,-4.3101715445,-6.8794598198,0.067942
 3222\H,-5.0561344489,-7.5957762174,0.3858137207\S,-4.4052455913,-5.229
 757369,0.5887151324\Pt,0.0407423205,0.09700597,-0.0677749392\H,2.61594
 98673,-4.4531147469,-0.2982987482\\Version=ES64L-G16RevC.01\State=1-A\
 HF=-3915.8492849\RMSD=5.172e-09\RMSF=2.361e-06\Dipole=0.1008668,2.2326
 907,0.2889747\Quadrupole=-12.0847694,-9.7411471,21.8259164,-5.9717705,
 -1.2302191,-2.255202\PG=C01 [X(C42H10F15N4O1Pt1S1)]\\@
 The archive entry for this job was punched.


      LET US REMEMBER, PLEASE, THAT THE SEARCH FOR THE CONSTITUTION
      OF THE WORLD IS ONE OF THE GREATEST AND NOBLEST PROBLEMS PRESENTED 
      BY NATURE.

                                                  -- GALILEO
 Job cpu time:       4 days  5 hours 44 minutes  5.9 seconds.
 Elapsed time:       0 days  6 hours 22 minutes  0.1 seconds.
 File lengths (MBytes):  RWF=    889 Int=      0 D2E=      0 Chk=    123 Scr=      1
 Normal termination of Gaussian 16 at Wed Oct 20 22:08:38 2021.
