 Entering Gaussian System, Link 0=/local/apl/lx/g16c01/g16/._.g16
 Initial command:
 /local/apl/lx/g16c01/g16/l1.exe "/work/users/cpi/tmp.117033/Gau-117090.inp" -scrdir="/work/users/cpi/tmp.117033/"
 Entering Link 1 = /local/apl/lx/g16c01/g16/l1.exe PID=    117091.
  
 Copyright (c) 1988-2019, Gaussian, Inc.  All Rights Reserved.
  
 This is part of the Gaussian(R) 16 program.  It is based on
 the Gaussian(R) 09 system (copyright 2009, Gaussian, Inc.),
 the Gaussian(R) 03 system (copyright 2003, Gaussian, Inc.),
 the Gaussian(R) 98 system (copyright 1998, Gaussian, Inc.),
 the Gaussian(R) 94 system (copyright 1995, Gaussian, Inc.),
 the Gaussian 92(TM) system (copyright 1992, Gaussian, Inc.),
 the Gaussian 90(TM) system (copyright 1990, Gaussian, Inc.),
 the Gaussian 88(TM) system (copyright 1988, Gaussian, Inc.),
 the Gaussian 86(TM) system (copyright 1986, Carnegie Mellon
 University), and the Gaussian 82(TM) system (copyright 1983,
 Carnegie Mellon University). Gaussian is a federally registered
 trademark of Gaussian, Inc.
  
 This software contains proprietary and confidential information,
 including trade secrets, belonging to Gaussian, Inc.
  
 This software is provided under written license and may be
 used, copied, transmitted, or stored only in accord with that
 written license.
  
 The following legend is applicable only to US Government
 contracts under FAR:
  
                    RESTRICTED RIGHTS LEGEND
  
 Use, reproduction and disclosure by the US Government is
 subject to restrictions as set forth in subparagraphs (a)
 and (c) of the Commercial Computer Software - Restricted
 Rights clause in FAR 52.227-19.
  
 Gaussian, Inc.
 340 Quinnipiac St., Bldg. 40, Wallingford CT 06492
  
  
 ---------------------------------------------------------------
 Warning -- This program may not be used in any manner that
 competes with the business of Gaussian, Inc. or will provide
 assistance to any competitor of Gaussian, Inc.  The licensee
 of this program is prohibited from giving any competitor of
 Gaussian, Inc. access to this program.  By using this program,
 the user acknowledges that Gaussian, Inc. is engaged in the
 business of creating and licensing software in the field of
 computational chemistry and represents and warrants to the
 licensee that it is not a competitor of Gaussian, Inc. and that
 it will not use this program in any manner prohibited above.
 ---------------------------------------------------------------
  

 Cite this work as:
 Gaussian 16, Revision C.01,
 M. J. Frisch, G. W. Trucks, H. B. Schlegel, G. E. Scuseria, 
 M. A. Robb, J. R. Cheeseman, G. Scalmani, V. Barone, 
 G. A. Petersson, H. Nakatsuji, X. Li, M. Caricato, A. V. Marenich, 
 J. Bloino, B. G. Janesko, R. Gomperts, B. Mennucci, H. P. Hratchian, 
 J. V. Ortiz, A. F. Izmaylov, J. L. Sonnenberg, D. Williams-Young, 
 F. Ding, F. Lipparini, F. Egidi, J. Goings, B. Peng, A. Petrone, 
 T. Henderson, D. Ranasinghe, V. G. Zakrzewski, J. Gao, N. Rega, 
 G. Zheng, W. Liang, M. Hada, M. Ehara, K. Toyota, R. Fukuda, 
 J. Hasegawa, M. Ishida, T. Nakajima, Y. Honda, O. Kitao, H. Nakai, 
 T. Vreven, K. Throssell, J. A. Montgomery, Jr., J. E. Peralta, 
 F. Ogliaro, M. J. Bearpark, J. J. Heyd, E. N. Brothers, K. N. Kudin, 
 V. N. Staroverov, T. A. Keith, R. Kobayashi, J. Normand, 
 K. Raghavachari, A. P. Rendell, J. C. Burant, S. S. Iyengar, 
 J. Tomasi, M. Cossi, J. M. Millam, M. Klene, C. Adamo, R. Cammi, 
 J. W. Ochterski, R. L. Martin, K. Morokuma, O. Farkas, 
 J. B. Foresman, and D. J. Fox, Gaussian, Inc., Wallingford CT, 2019.
 
 ******************************************
 Gaussian 16:  ES64L-G16RevC.01  3-Jul-2019
                 3-Sep-2022 
 ******************************************
 %mem=100GB
 %nprocshare=16
 Will use up to   16 processors via shared memory.
 %chk=Pd_3C6F5_Por_thiophene_OH.chk
 ----------------------------------------------------------------
 # td=(nstates=75) b3lyp/genecp geom=connectivity scf=maxcyc=1000
 ----------------------------------------------------------------
 1/38=1,57=2,172=1/1;
 2/12=2,17=6,18=5,40=1/2;
 3/5=7,11=9,16=1,17=8,25=1,30=1,74=-5/1,2,3,8;
 4//1;
 5/5=2,7=1000,38=5/2;
 8/6=1,10=1,108=75/1;
 9/41=75,42=1,70=2/14;
 6/7=2,8=2,9=2,10=2/1;
 99/5=1,9=1/99;
 -----
 title
 -----
 Symbolic Z-matrix:
 Charge =  0 Multiplicity = 1
 C                    -1.97872  -2.81942  -0.08952 
 C                     2.19376   1.70943  -0.03883 
 C                     4.22311   0.72211  -0.03558 
 C                     3.17473  -0.27303   0.00448 
 C                     2.37239  -2.62263   0.08279 
 C                     1.36677  -4.64174   0.16871 
 C                     0.39652  -3.58957   0.07129 
 C                    -0.15499   2.50808  -0.01748 
 C                    -1.1496    3.5603    0.00762 
 C                    -2.93414  -0.82488  -0.0435 
 C                    -3.98487  -1.7912   -0.12581 
 C                    -2.13977   1.53235   0.01024 
 H                    -5.0402   -1.57183  -0.18815 
 H                    -0.93491   4.61844   0.00391 
 H                     5.28159   0.50911  -0.04878 
 N                     1.02641  -2.37277   0.02534 
 N                    -1.72519  -1.46636  -0.03185 
 N                     1.95156   0.36164  -0.00372 
 N                    -0.78395   1.2914   -0.01558 
 C                     3.62233   1.93805  -0.05801 
 H                     4.09629   2.9079   -0.07974 
 C                     2.59161  -4.04337   0.17481 
 H                     3.55731  -4.52153   0.24402 
 C                    -3.41096  -3.03681  -0.17627 
 C                    -2.36573   2.9621    0.03371 
 H                    -3.33426   3.43821   0.06675 
 C                    -0.98747  -3.81392   0.00846 
 C                    -3.14411   0.57047  -0.00204 
 C                     3.38824  -1.64885   0.0558 
 C                     1.22781   2.72421  -0.04062 
 C                     4.80205  -2.13315   0.08793 
 C                     5.3884   -2.74331  -1.02609 
 C                     5.59407  -2.00284   1.23354 
 C                     6.70234  -3.20556  -1.00758 
 C                     6.91188  -2.45326   1.27422 
 C                     7.46615  -3.05803   0.14829 
 C                     1.70955   4.13933  -0.06338 
 C                     2.22555   4.71578  -1.22884 
 C                     1.66592   4.94508   1.07929 
 C                     2.68179   6.03173  -1.26224 
 C                     2.11004   6.26557   1.06902 
 C                     2.62143   6.80887  -0.10753 
 C                    -4.56164   1.0447    0.02148 
 C                    -5.15785   1.62899  -1.1011 
 C                    -5.35285   0.91688   1.1683 
 C                    -6.47834   2.07324  -1.08806 
 C                    -6.67679   1.34858   1.20364 
 C                    -7.23982   1.93039   0.06973 
 C                    -4.15361  -4.29595  -0.30496 
 C                    -5.01641  -6.32777  -1.10629 
 H                    -3.32619  -5.25367  -2.06565 
 F                     5.09045  -1.43005   2.33442 
 F                     7.64366  -2.31407   2.38486 
 F                     8.72709  -3.49498   0.17647 
 F                     7.23535  -3.78271  -2.08979 
 F                     4.6824   -2.89647  -2.15365 
 F                     2.29524   3.99618  -2.35638 
 F                     3.17037   6.55367  -2.39248 
 F                     3.05266   8.07203  -0.12844 
 F                     2.05408   7.01055   2.17828 
 F                     1.18208   4.45224   2.22694 
 F                    -4.45549   1.77667  -2.23195 
 F                    -7.0194    2.62837  -2.17776 
 F                    -8.50662   2.35018   0.09274 
 F                    -7.40646   1.2138    2.3161 
 F                    -4.84057   0.36413   2.2754 
 H                    -5.08632  -7.18583  -1.76459 
 C                    -4.05111  -5.28939  -1.25969 
 C                    -5.85472  -6.1182   -0.04555 
 H                    -6.66779  -6.7428    0.29818 
 S                    -5.47236  -4.65348   0.79434 
 Pd                    0.11804  -0.54462  -0.00633 
 O                    -1.31833  -5.12613   0.05928 
 H                    -2.28394  -5.24092   0.04077 
 H                     1.12986  -5.69326   0.22253 
 
 Stoichiometry    C42H11F15N4OPdS
 Framework group  C1[X(C42H11F15N4OPdS)]
 Deg. of freedom   219
 Full point group                 C1      NOp   1
 Largest Abelian subgroup         C1      NOp   1
 Largest concise Abelian subgroup C1      NOp   1
                         Standard orientation:                         
 ---------------------------------------------------------------------
 Center     Atomic      Atomic             Coordinates (Angstroms)
 Number     Number       Type             X           Y           Z
 ---------------------------------------------------------------------
      1          6           0       -1.978720   -2.819421   -0.089517
      2          6           0        2.193758    1.709433   -0.038827
      3          6           0        4.223110    0.722105   -0.035580
      4          6           0        3.174732   -0.273034    0.004480
      5          6           0        2.372391   -2.622625    0.082789
      6          6           0        1.366769   -4.641739    0.168712
      7          6           0        0.396519   -3.589573    0.071293
      8          6           0       -0.154986    2.508080   -0.017476
      9          6           0       -1.149596    3.560300    0.007623
     10          6           0       -2.934143   -0.824884   -0.043502
     11          6           0       -3.984865   -1.791195   -0.125812
     12          6           0       -2.139774    1.532346    0.010235
     13          1           0       -5.040202   -1.571827   -0.188145
     14          1           0       -0.934905    4.618440    0.003913
     15          1           0        5.281588    0.509112   -0.048782
     16          7           0        1.026410   -2.372774    0.025339
     17          7           0       -1.725191   -1.466358   -0.031851
     18          7           0        1.951557    0.361643   -0.003717
     19          7           0       -0.783949    1.291403   -0.015581
     20          6           0        3.622330    1.938051   -0.058010
     21          1           0        4.096291    2.907901   -0.079738
     22          6           0        2.591610   -4.043374    0.174809
     23          1           0        3.557308   -4.521531    0.244017
     24          6           0       -3.410962   -3.036807   -0.176270
     25          6           0       -2.365728    2.962097    0.033709
     26          1           0       -3.334259    3.438208    0.066752
     27          6           0       -0.987472   -3.813917    0.008462
     28          6           0       -3.144110    0.570469   -0.002038
     29          6           0        3.388237   -1.648846    0.055797
     30          6           0        1.227809    2.724207   -0.040624
     31          6           0        4.802045   -2.133155    0.087926
     32          6           0        5.388402   -2.743307   -1.026090
     33          6           0        5.594073   -2.002839    1.233539
     34          6           0        6.702343   -3.205560   -1.007575
     35          6           0        6.911879   -2.453261    1.274221
     36          6           0        7.466148   -3.058034    0.148287
     37          6           0        1.709545    4.139329   -0.063376
     38          6           0        2.225554    4.715778   -1.228843
     39          6           0        1.665924    4.945083    1.079289
     40          6           0        2.681791    6.031730   -1.262239
     41          6           0        2.110043    6.265571    1.069018
     42          6           0        2.621425    6.808873   -0.107526
     43          6           0       -4.561635    1.044700    0.021475
     44          6           0       -5.157851    1.628989   -1.101101
     45          6           0       -5.352849    0.916879    1.168299
     46          6           0       -6.478337    2.073236   -1.088063
     47          6           0       -6.676791    1.348581    1.203636
     48          6           0       -7.239819    1.930388    0.069730
     49          6           0       -4.153614   -4.295948   -0.304960
     50          6           0       -5.016411   -6.327774   -1.106286
     51          1           0       -3.326185   -5.253670   -2.065646
     52          9           0        5.090449   -1.430048    2.334415
     53          9           0        7.643659   -2.314068    2.384860
     54          9           0        8.727090   -3.494981    0.176465
     55          9           0        7.235349   -3.782706   -2.089789
     56          9           0        4.682395   -2.896473   -2.153650
     57          9           0        2.295237    3.996178   -2.356375
     58          9           0        3.170374    6.553674   -2.392476
     59          9           0        3.052659    8.072026   -0.128441
     60          9           0        2.054082    7.010550    2.178277
     61          9           0        1.182080    4.452242    2.226942
     62          9           0       -4.455492    1.776670   -2.231948
     63          9           0       -7.019405    2.628365   -2.177757
     64          9           0       -8.506621    2.350175    0.092741
     65          9           0       -7.406460    1.213797    2.316102
     66          9           0       -4.840566    0.364131    2.275402
     67          1           0       -5.086316   -7.185833   -1.764586
     68          6           0       -4.051112   -5.289390   -1.259691
     69          6           0       -5.854722   -6.118201   -0.045552
     70          1           0       -6.667788   -6.742800    0.298182
     71         16           0       -5.472356   -4.653481    0.794335
     72         46           0        0.118043   -0.544615   -0.006332
     73          8           0       -1.318330   -5.126134    0.059275
     74          1           0       -2.283938   -5.240916    0.040766
     75          1           0        1.129860   -5.693264    0.222525
 ---------------------------------------------------------------------
 Rotational constants (GHZ):           0.0365489           0.0247940           0.0161124
 General basis read from cards:  (5D, 7F)
 ======================================================================================================
                                       Pseudopotential Parameters
 ======================================================================================================
  Center     Atomic      Valence      Angular      Power
  Number     Number     Electrons     Momentum     of R      Exponent        Coefficient   SO-Coeffient
 ======================================================================================================
    1          6
                                   No pseudopotential on this center.
    2          6
                                   No pseudopotential on this center.
    3          6
                                   No pseudopotential on this center.
    4          6
                                   No pseudopotential on this center.
    5          6
                                   No pseudopotential on this center.
    6          6
                                   No pseudopotential on this center.
    7          6
                                   No pseudopotential on this center.
    8          6
                                   No pseudopotential on this center.
    9          6
                                   No pseudopotential on this center.
   10          6
                                   No pseudopotential on this center.
   11          6
                                   No pseudopotential on this center.
   12          6
                                   No pseudopotential on this center.
   13          1
                                   No pseudopotential on this center.
   14          1
                                   No pseudopotential on this center.
   15          1
                                   No pseudopotential on this center.
   16          7
                                   No pseudopotential on this center.
   17          7
                                   No pseudopotential on this center.
   18          7
                                   No pseudopotential on this center.
   19          7
                                   No pseudopotential on this center.
   20          6
                                   No pseudopotential on this center.
   21          1
                                   No pseudopotential on this center.
   22          6
                                   No pseudopotential on this center.
   23          1
                                   No pseudopotential on this center.
   24          6
                                   No pseudopotential on this center.
   25          6
                                   No pseudopotential on this center.
   26          1
                                   No pseudopotential on this center.
   27          6
                                   No pseudopotential on this center.
   28          6
                                   No pseudopotential on this center.
   29          6
                                   No pseudopotential on this center.
   30          6
                                   No pseudopotential on this center.
   31          6
                                   No pseudopotential on this center.
   32          6
                                   No pseudopotential on this center.
   33          6
                                   No pseudopotential on this center.
   34          6
                                   No pseudopotential on this center.
   35          6
                                   No pseudopotential on this center.
   36          6
                                   No pseudopotential on this center.
   37          6
                                   No pseudopotential on this center.
   38          6
                                   No pseudopotential on this center.
   39          6
                                   No pseudopotential on this center.
   40          6
                                   No pseudopotential on this center.
   41          6
                                   No pseudopotential on this center.
   42          6
                                   No pseudopotential on this center.
   43          6
                                   No pseudopotential on this center.
   44          6
                                   No pseudopotential on this center.
   45          6
                                   No pseudopotential on this center.
   46          6
                                   No pseudopotential on this center.
   47          6
                                   No pseudopotential on this center.
   48          6
                                   No pseudopotential on this center.
   49          6
                                   No pseudopotential on this center.
   50          6
                                   No pseudopotential on this center.
   51          1
                                   No pseudopotential on this center.
   52          9
                                   No pseudopotential on this center.
   53          9
                                   No pseudopotential on this center.
   54          9
                                   No pseudopotential on this center.
   55          9
                                   No pseudopotential on this center.
   56          9
                                   No pseudopotential on this center.
   57          9
                                   No pseudopotential on this center.
   58          9
                                   No pseudopotential on this center.
   59          9
                                   No pseudopotential on this center.
   60          9
                                   No pseudopotential on this center.
   61          9
                                   No pseudopotential on this center.
   62          9
                                   No pseudopotential on this center.
   63          9
                                   No pseudopotential on this center.
   64          9
                                   No pseudopotential on this center.
   65          9
                                   No pseudopotential on this center.
   66          9
                                   No pseudopotential on this center.
   67          1
                                   No pseudopotential on this center.
   68          6
                                   No pseudopotential on this center.
   69          6
                                   No pseudopotential on this center.
   70          1
                                   No pseudopotential on this center.
   71         16
                                   No pseudopotential on this center.
   72         46           18
                                      F and up 
                                                     0      598.3336444       -0.05631770    0.00000000
                                                     1      162.4298290      -20.12880360    0.00000000
                                                     2       51.5714771     -105.81979230    0.00000000
                                                     2       16.4888260      -42.57333450    0.00000000
                                                     2        5.8287656       -3.61650860    0.00000000
                                      S - F
                                                     0       73.3806304        3.00036510    0.00000000
                                                     1       14.7550438       32.43500930    0.00000000
                                                     2       17.8350204      459.08303830    0.00000000
                                                     2       12.7111477     -868.06290290    0.00000000
                                                     2        9.3292063      514.47260980    0.00000000
                                      P - F
                                                     0       55.6689877        4.95930990    0.00000000
                                                     1       64.2337771       21.17110290    0.00000000
                                                     2       17.6254952      605.05600920    0.00000000
                                                     2       11.9058155     -726.96418460    0.00000000
                                                     2        8.5100832      396.32748830    0.00000000
                                      D - F
                                                     0       49.9994728        3.05087450    0.00000000
                                                     1       39.7477547       22.25065800    0.00000000
                                                     2       11.4321366      674.83576980    0.00000000
                                                     2        9.1790080    -1040.85540480    0.00000000
                                                     2        7.5624429      505.93751470    0.00000000
   73          8
                                   No pseudopotential on this center.
   74          1
                                   No pseudopotential on this center.
   75          1
                                   No pseudopotential on this center.
 ======================================================================================================
 There are  1280 symmetry adapted cartesian basis functions of A   symmetry.
 There are  1215 symmetry adapted basis functions of A   symmetry.
  1215 basis functions,  2166 primitive gaussians,  1280 cartesian basis functions
   234 alpha electrons      234 beta electrons
       nuclear repulsion energy     10150.3999905617 Hartrees.
 NAtoms=   75 NActive=   75 NUniq=   75 SFac= 1.00D+00 NAtFMM=   60 NAOKFM=T Big=T
 Integral buffers will be    131072 words long.
 Regular integral format.
 Two-electron integral symmetry is turned on.
 One-electron integrals computed using PRISM.
   1 Symmetry operations used in ECPInt.
 ECPInt:  NShTT=   63903 NPrTT=  349390 LenC2=   43953 LenP2D=  126845.
 LDataN:  DoStor=T MaxTD1= 5 Len=  102
 NBasis=  1215 RedAO= T EigKep=  1.10D-06  NBF=  1215
 NBsUse=  1197 1.00D-06 EigRej=  9.70D-07 NBFU=  1197
 Defaulting to unpruned grid for atomic number  46.
 ExpMin= 2.62D-02 ExpMax= 2.19D+04 ExpMxC= 3.30D+03 IAcc=3 IRadAn=         5 AccDes= 0.00D+00
 Harris functional with IExCor=  402 and IRadAn=       5 diagonalized for initial guess.
 HarFok:  IExCor=  402 AccDes= 0.00D+00 IRadAn=         5 IDoV= 1 UseB2=F ITyADJ=14
 ICtDFT=  3500011 ScaDFX=  1.000000  1.000000  1.000000  1.000000
 Defaulting to unpruned grid for atomic number  46.
 FoFCou: FMM=F IPFlag=           0 FMFlag=      100000 FMFlg1=        2001
         NFxFlg=           0 DoJE=T BraDBF=F KetDBF=T FulRan=T
         wScrn=  0.000000 ICntrl=       500 IOpCl=  0 I1Cent=   200000004 NGrid=           0
         NMat0=    1 NMatS0=      1 NMatT0=    0 NMatD0=    1 NMtDS0=    0 NMtDT0=    0
 Petite list used in FoFCou.
 Requested convergence on RMS density matrix=1.00D-08 within1000 cycles.
 Requested convergence on MAX density matrix=1.00D-06.
 Requested convergence on             energy=1.00D-06.
 No special actions if energy rises.
 Defaulting to unpruned grid for atomic number  46.
 Defaulting to unpruned grid for atomic number  46.
 Defaulting to unpruned grid for atomic number  46.
 Defaulting to unpruned grid for atomic number  46.
 Defaulting to unpruned grid for atomic number  46.
 Defaulting to unpruned grid for atomic number  46.
 Defaulting to unpruned grid for atomic number  46.
 Defaulting to unpruned grid for atomic number  46.
 Defaulting to unpruned grid for atomic number  46.
 Defaulting to unpruned grid for atomic number  46.
 Defaulting to unpruned grid for atomic number  46.
 Defaulting to unpruned grid for atomic number  46.
 Defaulting to unpruned grid for atomic number  46.
 Defaulting to unpruned grid for atomic number  46.
 Defaulting to unpruned grid for atomic number  46.
 Defaulting to unpruned grid for atomic number  46.
 EnCoef did    12 forward-backward iterations
 EnCoef did   100 forward-backward iterations
 EnCoef did   100 forward-backward iterations
 EnCoef did   100 forward-backward iterations
 EnCoef did   100 forward-backward iterations
 Restarting incremental Fock formation.
 SCF Done:  E(RB3LYP) =  -3923.90922282     A.U. after   27 cycles
            NFock= 27  Conv=0.91D-08     -V/T= 2.0268
 DoSCS=F DFT=T ScalE2(SS,OS)=  1.000000  1.000000
 ExpMin= 2.62D-02 ExpMax= 2.19D+04 ExpMxC= 3.30D+03 IAcc=3 IRadAn=         5 AccDes= 0.00D+00
 HarFok:  IExCor=  205 AccDes= 0.00D+00 IRadAn=         5 IDoV=-2 UseB2=F ITyADJ=14
 ICtDFT= 12500011 ScaDFX=  1.000000  1.000000  1.000000  1.000000
 Defaulting to unpruned grid for atomic number  46.
 GSVD:  LWork=       -5609 too small for GESVD, short by       26270 words or       26270 for optimal perf.
 Range of M.O.s used for correlation:    72  1197
 NBasis=  1215 NAE=   234 NBE=   234 NFC=    71 NFV=     0
 NROrb=   1126 NOA=   163 NOB=   163 NVA=   963 NVB=   963

 **** Warning!!: The largest alpha MO coefficient is  0.12120719D+03


 **** Warning!!: The smallest alpha delta epsilon is  0.99904629D-01

 Orbital symmetries:
       Occupied  (A) (A) (A) (A) (A) (A) (A) (A) (A) (A) (A) (A)
                 (A) (A) (A) (A) (A) (A) (A) (A) (A) (A) (A) (A)
                 (A) (A) (A) (A) (A) (A) (A) (A) (A) (A) (A) (A)
                 (A) (A) (A) (A) (A) (A) (A) (A) (A) (A) (A) (A)
                 (A) (A) (A) (A) (A) (A) (A) (A) (A) (A) (A) (A)
                 (A) (A) (A) (A) (A) (A) (A) (A) (A) (A) (A) (A)
                 (A) (A) (A) (A) (A) (A) (A) (A) (A) (A) (A) (A)
                 (A) (A) (A) (A) (A) (A) (A) (A) (A) (A) (A) (A)
                 (A) (A) (A) (A) (A) (A) (A) (A) (A) (A) (A) (A)
                 (A) (A) (A) (A) (A) (A) (A) (A) (A) (A) (A) (A)
                 (A) (A) (A) (A) (A) (A) (A) (A) (A) (A) (A) (A)
                 (A) (A) (A) (A) (A) (A) (A) (A) (A) (A) (A) (A)
                 (A) (A) (A) (A) (A) (A) (A) (A) (A) (A) (A) (A)
                 (A) (A) (A) (A) (A) (A) (A) (A) (A) (A) (A) (A)
                 (A) (A) (A) (A) (A) (A) (A) (A) (A) (A) (A) (A)
                 (A) (A) (A) (A) (A) (A) (A) (A) (A) (A) (A) (A)
                 (A) (A) (A) (A) (A) (A) (A) (A) (A) (A) (A) (A)
                 (A) (A) (A) (A) (A) (A) (A) (A) (A) (A) (A) (A)
                 (A) (A) (A) (A) (A) (A) (A) (A) (A) (A) (A) (A)
                 (A) (A) (A) (A) (A) (A)
       Virtual   (A) (A) (A) (A) (A) (A) (A) (A) (A) (A) (A) (A)
                 (A) (A) (A) (A) (A) (A) (A) (A) (A) (A) (A) (A)
                 (A) (A) (A) (A) (A) (A) (A) (A) (A) (A) (A) (A)
                 (A) (A) (A) (A) (A) (A) (A) (A) (A) (A) (A) (A)
                 (A) (A) (A) (A) (A) (A) (A) (A) (A) (A) (A) (A)
                 (A) (A) (A) (A) (A) (A) (A) (A) (A) (A) (A) (A)
                 (A) (A) (A) (A) (A) (A) (A) (A) (A) (A) (A) (A)
                 (A) (A) (A) (A) (A) (A) (A) (A) (A) (A) (A) (A)
                 (A) (A) (A) (A) (A) (A) (A) (A) (A) (A) (A) (A)
                 (A) (A) (A) (A) (A) (A) (A) (A) (A) (A) (A) (A)
                 (A) (A) (A) (A) (A) (A) (A) (A) (A) (A) (A) (A)
                 (A) (A) (A) (A) (A) (A) (A) (A) (A) (A) (A) (A)
                 (A) (A) (A) (A) (A) (A) (A) (A) (A) (A) (A) (A)
                 (A) (A) (A) (A) (A) (A) (A) (A) (A) (A) (A) (A)
                 (A) (A) (A) (A) (A) (A) (A) (A) (A) (A) (A) (A)
                 (A) (A) (A) (A) (A) (A) (A) (A) (A) (A) (A) (A)
                 (A) (A) (A) (A) (A) (A) (A) (A) (A) (A) (A) (A)
                 (A) (A) (A) (A) (A) (A) (A) (A) (A) (A) (A) (A)
                 (A) (A) (A) (A) (A) (A) (A) (A) (A) (A) (A) (A)
                 (A) (A) (A) (A) (A) (A) (A) (A) (A) (A) (A) (A)
                 (A) (A) (A) (A) (A) (A) (A) (A) (A) (A) (A) (A)
                 (A) (A) (A) (A) (A) (A) (A) (A) (A) (A) (A) (A)
                 (A) (A) (A) (A) (A) (A) (A) (A) (A) (A) (A) (A)
                 (A) (A) (A) (A) (A) (A) (A) (A) (A) (A) (A) (A)
                 (A) (A) (A) (A) (A) (A) (A) (A) (A) (A) (A) (A)
                 (A) (A) (A) (A) (A) (A) (A) (A) (A) (A) (A) (A)
                 (A) (A) (A) (A) (A) (A) (A) (A) (A) (A) (A) (A)
                 (A) (A) (A) (A) (A) (A) (A) (A) (A) (A) (A) (A)
                 (A) (A) (A) (A) (A) (A) (A) (A) (A) (A) (A) (A)
                 (A) (A) (A) (A) (A) (A) (A) (A) (A) (A) (A) (A)
                 (A) (A) (A) (A) (A) (A) (A) (A) (A) (A) (A) (A)
                 (A) (A) (A) (A) (A) (A) (A) (A) (A) (A) (A) (A)
                 (A) (A) (A) (A) (A) (A) (A) (A) (A) (A) (A) (A)
                 (A) (A) (A) (A) (A) (A) (A) (A) (A) (A) (A) (A)
                 (A) (A) (A) (A) (A) (A) (A) (A) (A) (A) (A) (A)
                 (A) (A) (A) (A) (A) (A) (A) (A) (A) (A) (A) (A)
                 (A) (A) (A) (A) (A) (A) (A) (A) (A) (A) (A) (A)
                 (A) (A) (A) (A) (A) (A) (A) (A) (A) (A) (A) (A)
                 (A) (A) (A) (A) (A) (A) (A) (A) (A) (A) (A) (A)
                 (A) (A) (A) (A) (A) (A) (A) (A) (A) (A) (A) (A)
                 (A) (A) (A) (A) (A) (A) (A) (A) (A) (A) (A) (A)
                 (A) (A) (A) (A) (A) (A) (A) (A) (A) (A) (A) (A)
                 (A) (A) (A) (A) (A) (A) (A) (A) (A) (A) (A) (A)
                 (A) (A) (A) (A) (A) (A) (A) (A) (A) (A) (A) (A)
                 (A) (A) (A) (A) (A) (A) (A) (A) (A) (A) (A) (A)
                 (A) (A) (A) (A) (A) (A) (A) (A) (A) (A) (A) (A)
                 (A) (A) (A) (A) (A) (A) (A) (A) (A) (A) (A) (A)
                 (A) (A) (A) (A) (A) (A) (A) (A) (A) (A) (A) (A)
                 (A) (A) (A) (A) (A) (A) (A) (A) (A) (A) (A) (A)
                 (A) (A) (A) (A) (A) (A) (A) (A) (A) (A) (A) (A)
                 (A) (A) (A) (A) (A) (A) (A) (A) (A) (A) (A) (A)
                 (A) (A) (A) (A) (A) (A) (A) (A) (A) (A) (A) (A)
                 (A) (A) (A) (A) (A) (A) (A) (A) (A) (A) (A) (A)
                 (A) (A) (A) (A) (A) (A) (A) (A) (A) (A) (A) (A)
                 (A) (A) (A) (A) (A) (A) (A) (A) (A) (A) (A) (A)
                 (A) (A) (A) (A) (A) (A) (A) (A) (A) (A) (A) (A)
                 (A) (A) (A) (A) (A) (A) (A) (A) (A) (A) (A) (A)
                 (A) (A) (A) (A) (A) (A) (A) (A) (A) (A) (A) (A)
                 (A) (A) (A) (A) (A) (A) (A) (A) (A) (A) (A) (A)
                 (A) (A) (A) (A) (A) (A) (A) (A) (A) (A) (A) (A)
                 (A) (A) (A) (A) (A) (A) (A) (A) (A) (A) (A) (A)
                 (A) (A) (A) (A) (A) (A) (A) (A) (A) (A) (A) (A)
                 (A) (A) (A) (A) (A) (A) (A) (A) (A) (A) (A) (A)
                 (A) (A) (A) (A) (A) (A) (A) (A) (A) (A) (A) (A)
                 (A) (A) (A) (A) (A) (A) (A) (A) (A) (A) (A) (A)
                 (A) (A) (A) (A) (A) (A) (A) (A) (A) (A) (A) (A)
                 (A) (A) (A) (A) (A) (A) (A) (A) (A) (A) (A) (A)
                 (A) (A) (A) (A) (A) (A) (A) (A) (A) (A) (A) (A)
                 (A) (A) (A) (A) (A) (A) (A) (A) (A) (A) (A) (A)
                 (A) (A) (A) (A) (A) (A) (A) (A) (A) (A) (A) (A)
                 (A) (A) (A) (A) (A) (A) (A) (A) (A) (A) (A) (A)
                 (A) (A) (A) (A) (A) (A) (A) (A) (A) (A) (A) (A)
                 (A) (A) (A) (A) (A) (A) (A) (A) (A) (A) (A) (A)
                 (A) (A) (A) (A) (A) (A) (A) (A) (A) (A) (A) (A)
                 (A) (A) (A) (A) (A) (A) (A) (A) (A) (A) (A) (A)
                 (A) (A) (A) (A) (A) (A) (A) (A) (A) (A) (A) (A)
                 (A) (A) (A) (A) (A) (A) (A) (A) (A) (A) (A) (A)
                 (A) (A) (A) (A) (A) (A) (A) (A) (A) (A) (A) (A)
                 (A) (A) (A) (A) (A) (A) (A) (A) (A) (A) (A) (A)
                 (A) (A) (A) (A) (A) (A) (A) (A) (A) (A) (A) (A)
                 (A) (A) (A)
   300 initial guesses have been made.
 Convergence on wavefunction:    0.001000000000000
 Iteration     1 Dimension   300 NMult     0 NNew    300
 CISAX will form   160 AO SS matrices at one time.
 Defaulting to unpruned grid for atomic number  46.
 Defaulting to unpruned grid for atomic number  46.
 Defaulting to unpruned grid for atomic number  46.
 Defaulting to unpruned grid for atomic number  46.
 Defaulting to unpruned grid for atomic number  46.
 Defaulting to unpruned grid for atomic number  46.
 Defaulting to unpruned grid for atomic number  46.
 Defaulting to unpruned grid for atomic number  46.
 Defaulting to unpruned grid for atomic number  46.
 Defaulting to unpruned grid for atomic number  46.
 Defaulting to unpruned grid for atomic number  46.
 Defaulting to unpruned grid for atomic number  46.
 Defaulting to unpruned grid for atomic number  46.
 Defaulting to unpruned grid for atomic number  46.
 Defaulting to unpruned grid for atomic number  46.
 Defaulting to unpruned grid for atomic number  46.
 New state      2 was old state      3
 New state      3 was old state      5
 New state      4 was old state      9
 New state      5 was old state      6
 New state      6 was old state      8
 New state      7 was old state     12
 New state      8 was old state     13
 New state      9 was old state     16
 New state     11 was old state      7
 New state     12 was old state     49
 New state     13 was old state     40
 New state     14 was old state     11
 New state     15 was old state     66
 New state     16 was old state      2
 New state     17 was old state     22
 New state     18 was old state     14
 New state     19 was old state     18
 New state     20 was old state     19
 New state     22 was old state     17
 New state     23 was old state     20
 New state     24 was old state     23
 New state     25 was old state     27
 New state     26 was old state     24
 New state     27 was old state     25
 New state     28 was old state     29
 New state     29 was old state     28
 New state     30 was old state     26
 New state     31 was old state     33
 New state     32 was old state     34
 New state     33 was old state     30
 New state     34 was old state     45
 New state     35 was old state     31
 New state     36 was old state     32
 New state     37 was old state     38
 New state     38 was old state     35
 New state     39 was old state     41
 New state     40 was old state     37
 New state     41 was old state     42
 New state     42 was old state     36
 New state     43 was old state     39
 No map to state     45
 New state     47 was old state     43
 New state     48 was old state     47
 New state     49 was old state     51
 New state     50 was old state     54
 New state     51 was old state     50
 New state     52 was old state     61
 New state     53 was old state     57
 New state     54 was old state     55
 New state     55 was old state     53
 New state     56 was old state     58
 New state     57 was old state     56
 New state     58 was old state     59
 New state     59 was old state     52
 New state     60 was old state    283
 New state     61 was old state     48
 New state     64 was old state     71
 New state     65 was old state     86
 New state     66 was old state     60
 New state     67 was old state     84
 New state     68 was old state     64
 New state     69 was old state     68
 New state     70 was old state     67
 New state     71 was old state     69
 New state     72 was old state     70
 New state     73 was old state     82
 New state     74 was old state    111
 New state     75 was old state     72
 Iteration     2 Dimension   450 NMult   300 NNew    150
 New state      4 was old state      5
 New state      5 was old state      4
 New state      7 was old state     16
 New state      8 was old state     14
 New state      9 was old state      7
 New state     10 was old state     11
 New state     11 was old state      8
 New state     12 was old state      9
 New state     13 was old state     10
 New state     14 was old state     12
 New state     15 was old state     13
 New state     16 was old state     15
 New state     19 was old state     24
 New state     22 was old state     19
 New state     24 was old state     22
 New state     26 was old state     27
 New state     27 was old state     37
 New state     28 was old state     26
 New state     29 was old state     28
 New state     31 was old state     29
 New state     32 was old state     31
 New state     36 was old state     32
 New state     37 was old state     46
 New state     38 was old state     36
 New state     40 was old state     38
 New state     41 was old state     40
 New state     42 was old state     41
 New state     43 was old state     42
 New state     44 was old state     43
 New state     45 was old state     44
 New state     46 was old state     47
 New state     47 was old state     45
 New state     49 was old state     50
 New state     50 was old state     49
 New state     51 was old state     52
 New state     52 was old state     60
 New state     53 was old state     61
 New state     54 was old state     51
 New state     55 was old state     53
 New state     56 was old state     62
 New state     57 was old state     59
 New state     58 was old state     54
 New state     59 was old state     55
 New state     60 was old state     56
 New state     61 was old state     57
 New state     62 was old state     58
 New state     63 was old state     66
 New state     64 was old state     63
 New state     65 was old state     64
 New state     66 was old state     65
 New state     72 was old state     73
 New state     73 was old state     72
 New state     74 was old state     75
 New state     75 was old state     78
 Iteration     3 Dimension   600 NMult   450 NNew    150
 New state     42 was old state     43
 New state     43 was old state     42
 Iteration     4 Dimension   750 NMult   600 NNew    150
 Iteration     5 Dimension   838 NMult   750 NNew     88
 Iteration     6 Dimension   848 NMult   838 NNew     10
 ***********************************************************************
 Excited states from <AA,BB:AA,BB> singles matrix:
 ***********************************************************************
 
 Ground to excited state transition densities written to RWF  633
 Ground to excited state transition electric dipole moments (Au):
       state          X           Y           Z        Dip. S.      Osc.
         1        -0.8164      0.6204     -0.0131      1.0515      0.0590
         2         0.0563      0.0300      0.0151      0.0043      0.0002
         3        -0.6045     -0.3497     -0.0290      0.4885      0.0344
         4        -0.7998     -0.2264     -0.0340      0.6921      0.0508
         5         0.5215      0.6589      0.0063      0.7062      0.0530
         6        -3.3157      0.1695     -0.0945     11.0316      0.8427
         7        -1.1344     -1.6244      0.0005      3.9255      0.3031
         8         0.2764      2.6007     -0.0288      6.8408      0.5328
         9         0.2150      0.2531      0.0026      0.1103      0.0088
        10        -0.0872      0.8163     -0.0003      0.6740      0.0542
        11        -0.0257      0.2300     -0.0008      0.0535      0.0044
        12        -0.4948      0.2864     -0.0052      0.3269      0.0277
        13         0.4597     -0.2739     -0.0191      0.2867      0.0244
        14        -0.0186     -0.1657     -0.0054      0.0278      0.0024
        15        -0.0830      0.0168      0.0052      0.0072      0.0006
        16        -0.1005      0.1041      0.0125      0.0211      0.0018
        17         0.1618     -0.7967      0.0328      0.6620      0.0587
        18        -0.3050      0.6129      0.0143      0.4689      0.0426
        19         0.7148      0.3148     -0.0077      0.6101      0.0574
        20         0.2937      0.3195      0.0618      0.1922      0.0183
        21        -0.2518      0.2577     -0.0112      0.1300      0.0125
        22         0.1071     -0.0432      0.0791      0.0196      0.0019
        23         0.0340      0.1182     -0.0331      0.0162      0.0016
        24         0.0769     -0.0206      0.0430      0.0082      0.0008
        25         0.1521      0.0996      0.0113      0.0332      0.0032
        26         0.0443     -0.2202      0.0083      0.0505      0.0049
        27         0.5207      0.4772      0.0015      0.4988      0.0495
        28         0.5146     -0.3991     -0.0956      0.4332      0.0431
        29         0.0172      0.0307      0.0140      0.0014      0.0001
        30        -0.2334      0.1051     -0.0299      0.0664      0.0067
        31         0.0282      0.0701     -0.0783      0.0118      0.0012
        32        -0.0057     -0.1219     -0.0138      0.0151      0.0015
        33         0.0702      0.0077      0.0072      0.0050      0.0005
        34        -0.1243     -0.3335     -0.0318      0.1277      0.0132
        35         0.1359     -0.1620      0.0236      0.0452      0.0047
        36         0.4146     -0.3542      0.0243      0.2979      0.0310
        37        -0.2643      0.4136     -0.0251      0.2416      0.0251
        38         0.0403     -0.0640     -0.0227      0.0062      0.0007
        39         0.0688      0.0895      0.0112      0.0129      0.0013
        40        -0.1070     -0.0577     -0.0345      0.0160      0.0017
        41         0.1944      0.0478      0.0413      0.0418      0.0044
        42        -0.0937      0.4115      0.0584      0.1816      0.0191
        43        -0.0815      0.0584     -0.0552      0.0131      0.0014
        44        -0.0965     -0.1959     -0.0178      0.0480      0.0051
        45         0.0115      0.2218     -0.0828      0.0562      0.0060
        46         0.2577      0.2205      0.0160      0.1153      0.0123
        47        -0.0101     -0.1603     -0.0197      0.0262      0.0028
        48        -0.3902      0.4214     -0.0035      0.3298      0.0353
        49        -0.2408     -1.0486     -0.0059      1.1575      0.1242
        50        -0.2574      0.2315     -0.0354      0.1211      0.0131
        51         0.1180      0.6204     -0.0181      0.3992      0.0436
        52        -0.0770      0.3760      0.0094      0.1474      0.0161
        53         0.8303      0.1829      0.0098      0.7230      0.0792
        54         0.2881      0.2023     -0.0402      0.1256      0.0138
        55         0.1732      0.0928     -0.0154      0.0388      0.0043
        56        -0.3051     -0.2170     -0.0296      0.1411      0.0156
        57         0.1843     -0.1385      0.0360      0.0545      0.0061
        58         0.0030      0.0316     -0.0021      0.0010      0.0001
        59         0.0183     -0.0057      0.0001      0.0004      0.0000
        60         0.0417      0.0138     -0.0052      0.0020      0.0002
        61        -0.0335     -0.0450      0.0174      0.0035      0.0004
        62         0.0670     -0.0114      0.0050      0.0046      0.0005
        63        -0.1185     -0.0965      0.0048      0.0234      0.0027
        64         0.0399      0.2393     -0.0076      0.0589      0.0069
        65         0.1414      0.0990     -0.0084      0.0299      0.0035
        66        -0.1803     -0.1774      0.0209      0.0644      0.0076
        67         0.4027      0.4539      0.0024      0.3682      0.0435
        68        -0.0492      0.0491      0.0121      0.0050      0.0006
        69         0.2999      0.1592      0.0305      0.1162      0.0139
        70        -0.1416     -0.1985      0.0149      0.0596      0.0072
        71        -0.1480      0.0729      0.0089      0.0273      0.0033
        72        -0.0791      0.0110     -0.0203      0.0068      0.0008
        73         0.0289      0.0263     -0.0062      0.0016      0.0002
        74         0.5565     -0.1643      0.0378      0.3381      0.0411
        75        -0.2091     -0.0563     -0.0055      0.0469      0.0057
 Ground to excited state transition velocity dipole moments (Au):
       state          X           Y           Z        Dip. S.      Osc.
         1         0.0662     -0.0507      0.0013      0.0069      0.0550
         2        -0.0049     -0.0036     -0.0012      0.0000      0.0003
         3         0.0625      0.0356      0.0020      0.0052      0.0327
         4         0.0855      0.0232      0.0035      0.0079      0.0475
         5        -0.0565     -0.0712     -0.0009      0.0083      0.0490
         6         0.3689     -0.0196      0.0098      0.1366      0.7947
         7         0.1262      0.1821     -0.0003      0.0491      0.2825
         8        -0.0316     -0.2940      0.0029      0.0874      0.4990
         9        -0.0249     -0.0290     -0.0009      0.0015      0.0081
        10         0.0096     -0.0964      0.0004      0.0094      0.0519
        11         0.0029     -0.0277      0.0008      0.0008      0.0042
        12         0.0614     -0.0339      0.0023      0.0049      0.0258
        13        -0.0576      0.0321      0.0037      0.0044      0.0228
        14         0.0018      0.0200      0.0018      0.0004      0.0021
        15         0.0102     -0.0018     -0.0009      0.0001      0.0006
        16         0.0116     -0.0126     -0.0007      0.0003      0.0015
        17        -0.0213      0.1018     -0.0043      0.0108      0.0543
        18         0.0367     -0.0817     -0.0015      0.0080      0.0392
        19        -0.0985     -0.0383      0.0016      0.0112      0.0527
        20        -0.0400     -0.0437     -0.0063      0.0035      0.0166
        21         0.0356     -0.0351      0.0006      0.0025      0.0115
        22        -0.0149      0.0058     -0.0130      0.0004      0.0019
        23        -0.0052     -0.0155      0.0062      0.0003      0.0014
        24        -0.0104      0.0046     -0.0072      0.0002      0.0008
        25        -0.0220     -0.0139     -0.0007      0.0007      0.0031
        26        -0.0060      0.0312     -0.0027      0.0010      0.0046
        27        -0.0718     -0.0714     -0.0008      0.0103      0.0459
        28        -0.0725      0.0580      0.0123      0.0088      0.0392
        29        -0.0005     -0.0057     -0.0033      0.0000      0.0002
        30         0.0361     -0.0154      0.0036      0.0016      0.0068
        31        -0.0043     -0.0106      0.0125      0.0003      0.0012
        32         0.0006      0.0183      0.0005      0.0003      0.0014
        33        -0.0099     -0.0017      0.0009      0.0001      0.0004
        34         0.0182      0.0489      0.0067      0.0028      0.0119
        35        -0.0211      0.0245     -0.0027      0.0011      0.0045
        36        -0.0640      0.0524     -0.0039      0.0069      0.0293
        37         0.0406     -0.0626      0.0029      0.0056      0.0239
        38        -0.0041      0.0108      0.0031      0.0001      0.0006
        39        -0.0101     -0.0135     -0.0011      0.0003      0.0012
        40         0.0159      0.0115      0.0079      0.0005      0.0019
        41        -0.0293     -0.0076     -0.0120      0.0011      0.0045
        42         0.0157     -0.0635     -0.0058      0.0043      0.0183
        43         0.0111     -0.0078      0.0104      0.0003      0.0012
        44         0.0181      0.0303      0.0028      0.0013      0.0053
        45        -0.0013     -0.0369      0.0133      0.0015      0.0065
        46        -0.0384     -0.0337     -0.0032      0.0026      0.0109
        47         0.0041      0.0245      0.0032      0.0006      0.0026
        48         0.0592     -0.0659      0.0013      0.0079      0.0326
        49         0.0378      0.1673      0.0006      0.0294      0.1218
        50         0.0385     -0.0357      0.0059      0.0028      0.0115
        51        -0.0197     -0.1002     -0.0005      0.0104      0.0424
        52         0.0136     -0.0593      0.0023      0.0037      0.0150
        53        -0.1351     -0.0298      0.0004      0.0191      0.0776
        54        -0.0463     -0.0334      0.0078      0.0033      0.0134
        55        -0.0299     -0.0144      0.0020      0.0011      0.0045
        56         0.0485      0.0358     -0.0025      0.0036      0.0146
        57        -0.0297      0.0220     -0.0071      0.0014      0.0057
        58         0.0041     -0.0060      0.0003      0.0001      0.0002
        59        -0.0036      0.0016     -0.0003      0.0000      0.0001
        60        -0.0049     -0.0070      0.0014      0.0001      0.0003
        61         0.0002      0.0073     -0.0032      0.0001      0.0002
        62        -0.0118     -0.0017     -0.0006      0.0001      0.0006
        63         0.0190      0.0152     -0.0006      0.0006      0.0023
        64        -0.0058     -0.0421      0.0022      0.0018      0.0069
        65        -0.0242     -0.0168     -0.0034      0.0009      0.0033
        66         0.0312      0.0307     -0.0026      0.0019      0.0072
        67        -0.0695     -0.0785     -0.0043      0.0110      0.0414
        68         0.0084     -0.0087      0.0050      0.0002      0.0006
        69        -0.0519     -0.0282     -0.0051      0.0035      0.0130
        70         0.0255      0.0343     -0.0019      0.0018      0.0068
        71         0.0272     -0.0124     -0.0016      0.0009      0.0033
        72         0.0136     -0.0019      0.0034      0.0002      0.0007
        73        -0.0050     -0.0035      0.0005      0.0000      0.0001
        74        -0.0996      0.0298     -0.0077      0.0109      0.0397
        75         0.0375      0.0091      0.0010      0.0015      0.0054
 Ground to excited state transition magnetic dipole moments (Au):
       state          X           Y           Z
         1        -0.0346     -0.0027     -0.8462
         2        -0.0076     -0.0356      0.0825
         3         0.0374      0.0089     -1.5049
         4         0.0099      0.0272      0.4345
         5         0.0248      0.0238     -0.1366
         6        -0.0427      0.0483      0.0410
         7        -0.0275      0.0463      1.3760
         8        -0.0740     -0.0235      0.5235
         9         0.0324      0.0613      0.0004
        10        -0.0132      0.0058      0.0540
        11        -0.0997      0.0155      0.1157
        12         0.0119     -0.0271     -0.1596
        13         0.1916      0.0810      0.2343
        14        -0.2455     -0.4535      0.0246
        15         0.4595     -0.2796      0.0821
        16        -0.0206      0.0167      0.0793
        17        -0.0087      0.0046     -0.2303
        18        -0.0619     -0.0138     -0.0201
        19         0.0311     -0.0586      0.1327
        20        -0.0533     -0.0272      0.1061
        21        -0.1064     -0.0208      0.1483
        22         0.0900      0.2143      0.0599
        23         0.0613      0.0597      0.0217
        24        -0.0474     -0.2518      0.0223
        25         0.0021     -0.0461      0.0037
        26        -0.0490     -0.0380      0.0341
        27        -0.0440      0.0036      0.0841
        28         0.0096      0.0845     -0.3292
        29         0.1220     -0.1225      0.0267
        30         0.0093      0.0006     -0.0008
        31         0.2176     -0.0920     -0.0776
        32        -0.0381      0.0120     -0.0544
        33        -0.0211      0.0131     -0.1513
        34         0.0390      0.0414     -0.0807
        35         0.0632      0.0172      0.0050
        36         0.0376     -0.0638      0.0001
        37        -0.1005      0.0350      0.0064
        38         0.0259      0.0167     -0.1378
        39         0.0358     -0.0434      0.0495
        40         0.0299      0.1369      0.0342
        41         0.0322      0.0048      0.1203
        42         0.1037     -0.1765      0.1451
        43        -0.0279      0.0166     -0.0570
        44         0.1890      0.0403     -0.0659
        45         0.0020     -0.0726     -0.0995
        46        -0.0662      0.1898      0.0283
        47         0.1061      0.0244     -0.0599
        48         0.0140     -0.0212     -0.0954
        49         0.1472      0.1119     -0.0724
        50        -0.0430     -0.0089      0.0010
        51        -0.0367      0.0046     -0.5771
        52        -0.0125     -0.1009      0.8282
        53         0.0059     -0.0631      0.3771
        54        -0.0590     -0.0122     -0.2980
        55        -0.0248      0.0466     -0.2450
        56         0.0128      0.1321      0.7731
        57         0.1461     -0.0659     -0.3934
        58         0.0564      0.0002      0.0072
        59         0.0578     -0.0133     -0.0350
        60        -0.0498     -0.0755      0.0370
        61         0.0178      0.0050      0.0020
        62        -0.0357     -0.0072     -0.0156
        63         0.0094      0.0821      0.0671
        64        -0.0584      0.0298      0.0830
        65        -0.0865     -0.3030     -0.0455
        66         0.1047     -0.0310     -0.1289
        67        -0.1523      0.0816      0.3011
        68        -0.0806      0.0669      0.2367
        69        -0.0382      0.0363     -0.6368
        70         0.1542     -0.0876     -0.8732
        71         0.0114     -0.0044     -0.4719
        72         0.1171     -0.0786      0.1314
        73        -0.0369     -0.0263      0.2711
        74        -0.0332      0.0315     -0.0291
        75         0.0639     -0.0214     -0.0527
 Ground to excited state transition velocity quadrupole moments (Au):
       state          XX          YY          ZZ          XY          XZ          YZ
         1        -0.0004      0.2086     -0.0031     -0.0633      0.0193      0.0076
         2         0.0114      0.1329      0.0174      0.1119      0.0169      0.0037
         3        -0.1654     -0.2636     -0.0060     -0.4524     -0.0163     -0.0382
         4        -0.0213     -0.2216     -0.0085     -0.4796     -0.0107     -0.0334
         5         0.0670      0.1107     -0.0062      0.1616      0.0112      0.0099
         6        -0.3642     -0.2296     -0.0160     -0.9863     -0.0131     -0.0790
         7        -0.0473     -0.1343      0.0260     -0.1512     -0.0272      0.0053
         8         0.1894      0.2816     -0.0359      0.1083      0.0527      0.0016
         9         0.0061     -0.0131     -0.0041      0.0122     -0.0160      0.0073
        10         0.3499      0.5857     -0.0014      0.2317      0.0333      0.0110
        11         0.0643      0.0978     -0.0023      0.0550      0.0071      0.0010
        12         0.1611      0.2217     -0.0029      0.1470      0.0041     -0.0018
        13        -0.1796     -0.2980      0.0021     -0.1967     -0.0148     -0.0436
        14        -0.0746     -0.0820      0.0013     -0.0852     -0.0211     -0.0035
        15        -0.0093      0.0119     -0.0001     -0.0077     -0.0049     -0.0088
        16        -0.0646      0.2853      0.0045      0.3642      0.0039      0.0179
        17        -0.9313      0.6889     -0.0054      1.0377     -0.0374      0.0100
        18         0.3206      0.2352      0.0122      0.3116      0.0318      0.0447
        19         0.3102     -0.2823     -0.0010     -0.0904      0.0077      0.0125
        20         0.7449      0.0912      0.0128      1.2172      0.0142      0.0553
        21        -0.4008      0.0901     -0.0169      0.1536      0.0363     -0.0005
        22        -0.1934      0.0307     -0.0092     -0.0824     -0.1335      0.0540
        23        -0.3587      0.2104     -0.0072      0.0876     -0.0722     -0.0015
        24        -0.3230      0.1602     -0.0077     -0.1604      0.1228     -0.0606
        25        -0.5045      0.0690     -0.0214      0.1254      0.0188     -0.0229
        26         0.2666      0.5077      0.0261      0.2126     -0.0392      0.0001
        27         0.1236      0.2858      0.0006      0.4654      0.0055     -0.0049
        28        -0.6628      0.1110     -0.0257     -0.2055     -0.0767     -0.0785
        29        -0.7861      0.1386     -0.0044     -0.1907      0.0554      0.0433
        30         1.0566     -0.2397      0.0311     -0.9411     -0.0108     -0.0177
        31        -0.0064      0.0602     -0.0025     -0.1080      0.0470      0.1142
        32         0.0717      0.2241      0.0125      0.1331      0.0490      0.0423
        33         0.3033      0.0101      0.0153      0.0791     -0.0225     -0.0610
        34        -0.4646     -0.0244     -0.0087     -0.3106     -0.0764      0.0171
        35         0.3847     -0.1946      0.0128     -0.2453      0.0213      0.0355
        36         0.3278     -0.1376      0.0228     -0.0720      0.0497      0.0521
        37         0.2392      0.0950     -0.0077     -0.0541     -0.0240     -0.0277
        38        -0.1588     -0.3255     -0.0101     -0.4478      0.0233     -0.0552
        39         0.4657     -0.1509      0.0118     -0.2214      0.0253      0.0275
        40        -0.1191      0.1043      0.0017      0.0644     -0.0216      0.0457
        41        -0.0805     -0.0322      0.0106      0.0330     -0.0027      0.0417
        42        -0.0444     -0.1633      0.0118     -0.3673      0.1197      0.1072
        43         0.0187      0.0090      0.0058     -0.0229     -0.0652      0.0102
        44        -0.1859      0.1595      0.0001      0.1026     -0.0511      0.0723
        45         0.4106     -0.4364      0.0058     -0.3252      0.0830     -0.0059
        46         0.4235     -0.2618     -0.0089      0.0553     -0.1209     -0.0004
        47        -0.0965     -0.1030     -0.0068     -0.0523     -0.0188      0.0973
        48         0.2241     -0.1145     -0.0062     -0.1028      0.0170      0.0313
        49        -0.4059     -1.3398     -0.0164     -1.2466     -0.0663     -0.0503
        50         0.4769     -0.1214      0.0033      0.1061      0.0282      0.0133
        51        -0.0590      0.1011     -0.0195      0.0579      0.0755     -0.0250
        52         0.3099      0.2974     -0.0004      0.4074      0.0343      0.0149
        53        -0.4370      0.1707     -0.0117     -0.1141      0.0240     -0.0370
        54        -0.2180      0.4475     -0.0026     -0.4184     -0.0475     -0.0635
        55         0.0899     -0.0312     -0.0050      0.0227     -0.0550     -0.0126
        56        -0.0320     -0.3427      0.0032     -0.3097     -0.0322     -0.0016
        57         0.4967     -0.7092      0.0169      0.4622     -0.0013      0.0883
        58         0.2846     -0.1069      0.0253     -0.1754     -0.0037      0.0052
        59        -0.2720      0.0622     -0.0287      0.1379     -0.0099      0.0173
        60        -0.1186      0.2429      0.0065      0.0642      0.0221     -0.0265
        61         0.2262     -0.0277      0.0414     -0.0874     -0.0138      0.0177
        62        -0.0211      0.1047      0.0216      0.0473      0.0111     -0.0277
        63        -0.4548      0.7055      0.0094      0.4905     -0.0549     -0.0032
        64         0.1312      0.3713      0.0037      0.3553     -0.0370      0.0110
        65         0.1670      0.1402      0.0025      0.2374      0.0170      0.0061
        66        -0.2858     -0.3763     -0.0054     -0.4140      0.0060      0.0013
        67         0.7777      0.6859      0.0130      0.9694      0.0062      0.0331
        68         0.2213      0.1509      0.0023      0.1988     -0.0036     -0.0032
        69        -0.0641      0.4783     -0.0143      0.8830     -0.0006     -0.0019
        70        -0.2708     -0.4764     -0.0138     -0.3513      0.0107      0.0120
        71        -0.1461      0.0140     -0.0166      0.2914      0.0080      0.0096
        72         0.0223     -0.9105     -0.0030     -1.1757      0.0355     -0.0127
        73         0.5936      0.2299      0.0122      0.1368      0.0192      0.0105
        74         0.0115      0.4377     -0.0098      1.2637     -0.0332      0.0293
        75        -0.3830     -0.1249     -0.0056     -0.2602     -0.0116     -0.0170
 <0|del|b> * <b|rxdel|0> + <0|del|b> * <b|delr+rdel|0>
 Rotatory Strengths (R) in cgs (10**-40 erg-esu-cm/Gauss)
       state          XX          YY          ZZ    R(velocity)    E-M Angle
         1        -0.3076    -11.8271    -15.2803     -9.1383       92.65
         2        -0.1670      0.2201      0.4975      0.1835       90.00
         3       -10.1169     -7.2174     14.9553     -0.7930       90.19
         4         2.3142      3.7433     13.0951      6.3842       85.57
         5        -2.8850     -5.2916    -10.4824     -6.2197      103.41
         6       -32.1850   -107.6363     39.2105    -33.5369      125.28
         7        39.7053     -9.9773     -2.0392      9.2296       89.15
         8        73.2220     10.5093    -18.7965     21.6449       86.07
         9        -6.6572     -2.8831     -5.7315     -5.0906      167.12
        10         8.1047     -0.2705    -11.7593     -1.3083       97.09
        11        -0.2714     -0.6827     -2.6256     -1.1932       98.43
        12         2.8533     -0.2045      4.5053      2.3847       83.51
        13         8.8914    -19.2346    -31.6304    -13.9912      111.49
        14       -24.2212     -0.7335    -27.4939    -17.4829      155.59
        15         1.1305     12.2993     14.3834      9.2711       25.54
        16        -1.2886      0.4627     -1.9026     -0.9095      110.64
        17         2.2400     14.2478     -7.8122      2.8919       86.10
        18         8.4861     -0.3040    -13.9737     -1.9305      100.78
        19         6.5188     -9.8854      0.2821     -1.0282       92.25
        20       -16.0206     17.0216     12.1717      4.3909       68.51
        21         5.3445     -9.3100    -10.5510     -4.8388      108.86
        22         5.6160     -9.7321     -0.1670     -1.4277      100.24
        23        -3.2842     -1.7546     -0.3279     -1.7889      135.94
        24        -1.7821     -0.4440     -1.7726     -1.3329      103.82
        25         1.9620      1.3048     -0.4123      0.9515       60.61
        26        -1.5457      1.8854     -5.0958     -1.5854      115.93
        27        -0.6715      9.0333      5.1167      4.4928       72.86
        28         6.5190      8.1982    -14.0389      0.2261       89.74
        29         3.6496     -1.8599      0.8101      0.8666       61.42
        30        -8.3373      7.2134      2.6395      0.5052       28.71
        31        -1.9426     -2.4121      0.0790     -1.4252      102.70
        32        -1.4690     -0.1917      2.4496      0.2629       82.00
        33        -0.2897      1.3950     -0.8703      0.0783       90.00
        34         7.2112      5.8277     -2.9962      3.3476       64.97
        35         1.2558     -6.2818      0.8165     -1.4031      115.74
        36       -12.8602    -13.6661      0.4302     -8.6987      159.66
        37        -8.6836    -11.4079     -8.2696     -9.4537      141.75
        38        -4.2043      2.4135      0.2190     -0.5239      101.89
        39         2.5154     -2.1067      0.3605      0.2564       82.24
        40         5.8731      2.1712      2.4191      3.4878       40.53
        41        -4.2555     -7.2161      0.5867     -3.6283      126.64
        42        45.0833      0.7801      7.9749     17.9461       43.28
        43        -3.3051     -1.2383     -0.0930     -1.5455      156.96
        44         6.4029      9.5299      3.9902      6.6410       51.87
        45         0.2039      6.6802     -0.8768      2.0025       73.77
        46       -23.7781      5.8602      0.4562     -5.8206      112.29
        47         1.5423      1.7790      0.3851      1.2355       74.36
        48         4.9648      5.9136     -1.6581      3.0734       76.15
        49        63.7547      9.5993     33.1666     35.5069       44.62
        50         4.2558     -3.8365     -6.2150     -1.9319      125.01
        51        15.8505      3.2679    -16.8168      0.7672       89.48
        52        23.5011      2.1939      7.6959     11.1303       81.22
        53         5.8020      9.4697     -9.9506      1.7737       88.66
        54       -14.4385     14.1235      3.8155      1.1668       87.32
        55        -4.0768      1.2355      1.0374     -0.6013       92.91
        56        10.0987     -4.5388      9.1076      4.8892       85.83
        57        -4.0507     -1.9509     -6.7769     -4.2595      100.86
        58        -0.1542      0.6426      0.4850      0.3245       56.02
        59        -0.0661     -0.4851     -0.3888     -0.3133      144.36
        60         1.7269      0.7054      1.0209      1.1511       13.02
        61         0.8470     -0.5726     -0.1329      0.0472       90.00
        62         0.0257      1.6222      0.1833      0.6104       20.74
        63         3.5801      0.7933      1.3473      1.9069       57.70
        64        -3.7404     -0.6526      1.4239     -0.9897       99.39
        65         9.4740      5.8286     14.1327      9.8118       39.00
        66         0.5242      5.1460      4.9087      3.5263       69.05
        67       -22.6925     22.2320     11.9516      3.8304       85.46
        68         3.1243     -1.0234     -2.3901     -0.0964       90.00
        69        -4.5133     19.3224      1.7231      5.5107       83.64
        70        -2.0162     10.2802      1.9468      3.4036       86.09
        71         0.8835      3.5853      0.0084      1.4924       85.36
        72        -6.5109     11.4683      3.6202      2.8592       36.61
        73         0.7015      0.3871      0.5109      0.5332       75.88
        74       -14.6524     20.0280     11.9699      5.7818       37.72
        75        -0.7943      3.8084      5.2798      2.7647       49.47
 1/2[<0|r|b>*<b|rxdel|0> + (<0|rxdel|b>*<b|r|0>)*]
 Rotatory Strengths (R) in cgs (10**-40 erg-esu-cm/Gauss)
       state          XX          YY          ZZ     R(length)
         1       -19.9995      1.2057     -7.8353     -8.8764
         2         0.3022      0.7546     -0.8817      0.0584
         3        15.9997      2.1888    -30.8242     -4.2119
         4         5.5814      4.3538     10.4596      6.7983
         5        -9.1490    -11.0924      0.6126     -6.5429
         6      -100.1480     -5.7851      2.7375    -34.3985
         7       -22.0507     53.1303     -0.5129     10.1889
         8        14.4670     43.1413     10.6442     22.7508
         9        -4.9214    -10.9764     -0.0007     -5.2995
        10        -0.8166     -3.3735      0.0102     -1.3933
        11        -1.8107     -2.5245      0.0644     -1.4236
        12         4.1692      5.4809     -0.5893      3.0202
        13       -62.2790     15.6966      3.1711    -14.4704
        14        -3.2290    -53.1394      0.0940    -18.7581
        15        26.9753      3.3285     -0.3004     10.0012
        16        -1.4605     -1.2297     -0.7012     -1.1305
        17         0.9932      2.5931      5.3399      2.9754
        18       -13.3613      5.9731      0.2029     -2.3951
        19       -15.7392     13.0451      0.7268     -0.6558
        20        11.0735      6.1565     -4.6361      4.1980
        21       -18.9475      3.7851      1.1709     -4.6638
        22        -6.8192      6.5517     -3.3490     -1.2055
        23        -1.4721     -4.9882      0.5084     -1.9840
        24         2.5747     -3.6644     -0.6779     -0.5892
        25        -0.2313      3.2480     -0.0296      0.9957
        26         1.5376     -5.9226     -0.2014     -1.5288
        27        16.1928     -1.2245     -0.0920      4.9588
        28        -3.4926     23.8357    -22.2632     -0.6400
        29        -1.4816      2.6573     -0.2644      0.3038
        30         1.5424     -0.0451     -0.0176      0.4932
        31        -4.3386      4.5602     -4.2966     -1.3583
        32        -0.1527      1.0328     -0.5305      0.1165
        33         1.0497     -0.0719      0.7683      0.5820
        34         3.4332      9.7677     -1.8158      3.7950
        35        -6.0739      1.9743     -0.0835     -1.3944
        36       -11.0261    -15.9879     -0.0014     -9.0051
        37       -18.7880    -10.2288      0.1131     -9.6346
        38        -0.7390      0.7570     -2.2145     -0.7322
        39        -1.7419      2.7462     -0.3904      0.2046
        40         2.2591      5.5803      0.8333      2.8909
        41        -4.4290     -0.1615     -3.5103     -2.7003
        42         6.8754     51.3580     -5.9883     17.4150
        43        -1.6093     -0.6842     -2.2230     -1.5055
        44        12.9022      5.5789     -0.8273      5.8846
        45        -0.0161     11.3799     -5.8265      1.8458
        46        12.0666    -29.5941     -0.3205     -5.9493
        47         0.7590      2.7669     -0.8357      0.8967
        48         3.8491      6.3056     -0.2390      3.3053
        49        25.0645     82.9764     -0.2997     35.9137
        50        -7.8281      1.4539      0.0242     -2.1167
        51         3.0653     -2.0163     -7.3699     -2.1070
        52        -0.6804     26.8281     -5.4929      6.8849
        53        -3.4434      8.1652     -2.6090      0.7043
        54        12.0185      1.7470     -8.4687      1.7656
        55         3.0351     -3.0550     -2.6653     -0.8951
        56         2.7615     20.2709     16.1963     13.0762
        57       -19.0413     -6.4510     10.0293     -5.1543
        58        -0.1180     -0.0046      0.0105     -0.0374
        59        -0.7485     -0.0533      0.0033     -0.2662
        60         1.4663      0.7373      0.1365      0.7800
        61         0.4208      0.1602     -0.0253      0.1853
        62         1.6914     -0.0584      0.0550      0.5627
        63         0.7849      5.5978     -0.2253      2.0524
        64         1.6496     -5.0445      0.4487     -0.9821
        65         8.6496     21.2170     -0.2708      9.8653
        66        13.3520     -3.8911      1.9048      3.7886
        67        43.3566    -26.1889     -0.5013      5.5554
        68        -2.8023     -2.3228     -2.0322     -2.3858
        69         8.0941     -4.0820     13.7500      5.9207
        70        15.4347    -12.2947      9.2013      4.1138
        71         1.1959      0.2267      2.9643      1.4623
        72         6.5476      0.6091      1.8872      3.0146
        73         0.7544      0.4892      1.1830      0.8089
        74        13.0797      3.6582      0.7768      5.8382
        75         9.4423     -0.8522     -0.2060      2.7947
  1/2[<0|del|b>*<b|r|0> + (<0|r|b>*<b|del|0>)*] (Au)
       state          X           Y           Z        Dip. S.   Osc.(frdel)
         1        -0.0540     -0.0314      0.0000      0.0855      0.0570
         2        -0.0003     -0.0001      0.0000      0.0004      0.0003
         3        -0.0378     -0.0125     -0.0001      0.0503      0.0335
         4        -0.0684     -0.0052     -0.0001      0.0737      0.0491
         5        -0.0295     -0.0469      0.0000      0.0764      0.0509
         6        -1.2232     -0.0033     -0.0009      1.2275      0.8183
         7        -0.1432     -0.2958      0.0000      0.4390      0.2927
         8        -0.0087     -0.7646     -0.0001      0.7734      0.5156
         9        -0.0053     -0.0073      0.0000      0.0127      0.0084
        10        -0.0008     -0.0787      0.0000      0.0795      0.0530
        11        -0.0001     -0.0064      0.0000      0.0065      0.0043
        12        -0.0304     -0.0097      0.0000      0.0401      0.0267
        13        -0.0265     -0.0088     -0.0001      0.0353      0.0236
        14         0.0000     -0.0033      0.0000      0.0034      0.0022
        15        -0.0008      0.0000      0.0000      0.0009      0.0006
        16        -0.0012     -0.0013      0.0000      0.0025      0.0017
        17        -0.0035     -0.0811     -0.0001      0.0847      0.0565
        18        -0.0112     -0.0500      0.0000      0.0612      0.0408
        19        -0.0704     -0.0120      0.0000      0.0825      0.0550
        20        -0.0117     -0.0140     -0.0004      0.0261      0.0174
        21        -0.0090     -0.0090      0.0000      0.0180      0.0120
        22        -0.0016     -0.0002     -0.0010      0.0029      0.0019
        23        -0.0002     -0.0018     -0.0002      0.0022      0.0015
        24        -0.0008     -0.0001     -0.0003      0.0012      0.0008
        25        -0.0033     -0.0014      0.0000      0.0047      0.0032
        26        -0.0003     -0.0069      0.0000      0.0072      0.0048
        27        -0.0374     -0.0341      0.0000      0.0714      0.0476
        28        -0.0373     -0.0232     -0.0012      0.0616      0.0411
        29         0.0000     -0.0002      0.0000      0.0002      0.0002
        30        -0.0084     -0.0016     -0.0001      0.0101      0.0068
        31        -0.0001     -0.0007     -0.0010      0.0018      0.0012
        32         0.0000     -0.0022      0.0000      0.0022      0.0015
        33        -0.0007      0.0000      0.0000      0.0007      0.0005
        34        -0.0023     -0.0163     -0.0002      0.0188      0.0125
        35        -0.0029     -0.0040     -0.0001      0.0069      0.0046
        36        -0.0265     -0.0186     -0.0001      0.0452      0.0301
        37        -0.0107     -0.0259     -0.0001      0.0367      0.0245
        38        -0.0002     -0.0007     -0.0001      0.0009      0.0006
        39        -0.0007     -0.0012      0.0000      0.0019      0.0013
        40        -0.0017     -0.0007     -0.0003      0.0026      0.0018
        41        -0.0057     -0.0004     -0.0005      0.0066      0.0044
        42        -0.0015     -0.0262     -0.0003      0.0280      0.0186
        43        -0.0009     -0.0005     -0.0006      0.0019      0.0013
        44        -0.0018     -0.0059      0.0000      0.0077      0.0052
        45         0.0000     -0.0082     -0.0011      0.0093      0.0062
        46        -0.0099     -0.0074     -0.0001      0.0174      0.0116
        47         0.0000     -0.0039     -0.0001      0.0040      0.0027
        48        -0.0231     -0.0278      0.0000      0.0509      0.0339
        49        -0.0091     -0.1754      0.0000      0.1845      0.1230
        50        -0.0099     -0.0083     -0.0002      0.0184      0.0122
        51        -0.0023     -0.0621      0.0000      0.0645      0.0430
        52        -0.0010     -0.0223      0.0000      0.0233      0.0155
        53        -0.1122     -0.0054      0.0000      0.1176      0.0784
        54        -0.0133     -0.0068     -0.0003      0.0204      0.0136
        55        -0.0052     -0.0013      0.0000      0.0066      0.0044
        56        -0.0148     -0.0078      0.0001      0.0225      0.0150
        57        -0.0055     -0.0031     -0.0003      0.0088      0.0059
        58         0.0000     -0.0002      0.0000      0.0002      0.0001
        59        -0.0001      0.0000      0.0000      0.0001      0.0001
        60        -0.0002     -0.0001      0.0000      0.0003      0.0002
        61         0.0000     -0.0003     -0.0001      0.0004      0.0003
        62        -0.0008      0.0000      0.0000      0.0008      0.0005
        63        -0.0022     -0.0015      0.0000      0.0037      0.0025
        64        -0.0002     -0.0101      0.0000      0.0103      0.0069
        65        -0.0034     -0.0017      0.0000      0.0051      0.0034
        66        -0.0056     -0.0054     -0.0001      0.0111      0.0074
        67        -0.0280     -0.0356      0.0000      0.0636      0.0424
        68        -0.0004     -0.0004      0.0001      0.0008      0.0005
        69        -0.0156     -0.0045     -0.0002      0.0202      0.0135
        70        -0.0036     -0.0068      0.0000      0.0104      0.0070
        71        -0.0040     -0.0009      0.0000      0.0049      0.0033
        72        -0.0011      0.0000     -0.0001      0.0012      0.0008
        73        -0.0001     -0.0001      0.0000      0.0002      0.0002
        74        -0.0554     -0.0049     -0.0003      0.0606      0.0404
        75        -0.0078     -0.0005      0.0000      0.0084      0.0056

 Excitation energies and oscillator strengths:
 
 Excited State   1:      Singlet-A      2.2893 eV  541.58 nm  f=0.0590  <S**2>=0.000
     233 -> 236       -0.36044
     234 -> 235        0.60419
 This state for optimization and/or second-order correction.
 Total Energy, E(TD-HF/TD-DFT) =  -3923.82509207    
 Copying the excited state density for this state as the 1-particle RhoCI density.
 
 Excited State   2:      Singlet-A      2.3687 eV  523.42 nm  f=0.0002  <S**2>=0.000
     233 -> 235        0.49498
     234 -> 236        0.50084
 
 Excited State   3:      Singlet-A      2.8707 eV  431.90 nm  f=0.0344  <S**2>=0.000
     230 -> 235       -0.11884
     231 -> 235       -0.14094
     232 -> 235        0.65530
 
 Excited State   4:      Singlet-A      2.9974 eV  413.64 nm  f=0.0508  <S**2>=0.000
     231 -> 235        0.58868
     231 -> 236        0.16892
     232 -> 236       -0.28683
     233 -> 236        0.11686
 
 Excited State   5:      Singlet-A      3.0626 eV  404.84 nm  f=0.0530  <S**2>=0.000
     233 -> 235        0.12251
     234 -> 236       -0.11233
     234 -> 237        0.67408
 
 Excited State   6:      Singlet-A      3.1179 eV  397.65 nm  f=0.8427  <S**2>=0.000
     230 -> 235        0.12048
     231 -> 235       -0.13186
     231 -> 236       -0.14219
     232 -> 235       -0.13223
     233 -> 235       -0.16805
     233 -> 236        0.50424
     234 -> 235        0.28944
[...]
 Alpha virt. eigenvalues --    0.30858   0.30945   0.31010   0.31118   0.31285
 Alpha virt. eigenvalues --    0.31574   0.31709   0.31827   0.31998   0.32086
 Alpha virt. eigenvalues --    0.32248   0.32412   0.32496   0.32733   0.32839
 Alpha virt. eigenvalues --    0.33116   0.33505   0.33565   0.33663   0.33865
 Alpha virt. eigenvalues --    0.34203   0.34438   0.34520   0.34592   0.34665
 Alpha virt. eigenvalues --    0.34895   0.35088   0.35158   0.35260   0.35397
 Alpha virt. eigenvalues --    0.35612   0.35814   0.35874   0.36047   0.36138
 Alpha virt. eigenvalues --    0.36260   0.36452   0.36690   0.36860   0.37025
 Alpha virt. eigenvalues --    0.37093   0.37228   0.37322   0.37443   0.37486
 Alpha virt. eigenvalues --    0.37650   0.37766   0.37939   0.38049   0.38318
 Alpha virt. eigenvalues --    0.38372   0.38706   0.38831   0.38964   0.39161
 Alpha virt. eigenvalues --    0.39265   0.39432   0.39508   0.39576   0.39644
 Alpha virt. eigenvalues --    0.40067   0.40099   0.40232   0.40358   0.40552
 Alpha virt. eigenvalues --    0.40802   0.40918   0.41244   0.41416   0.41599
 Alpha virt. eigenvalues --    0.41627   0.41895   0.42017   0.42283   0.42700
 Alpha virt. eigenvalues --    0.42913   0.43056   0.43395   0.43505   0.43705
 Alpha virt. eigenvalues --    0.44100   0.44322   0.44574   0.44619   0.44971
 Alpha virt. eigenvalues --    0.45067   0.45290   0.45452   0.45775   0.46207
 Alpha virt. eigenvalues --    0.46524   0.46849   0.47033   0.47176   0.47482
 Alpha virt. eigenvalues --    0.47875   0.48494   0.48695   0.49029   0.49338
 Alpha virt. eigenvalues --    0.49897   0.49968   0.50433   0.50842   0.51226
 Alpha virt. eigenvalues --    0.51344   0.51580   0.51854   0.52043   0.52110
 Alpha virt. eigenvalues --    0.52258   0.52379   0.52610   0.52704   0.53184
 Alpha virt. eigenvalues --    0.54096   0.54157   0.54329   0.54478   0.54711
 Alpha virt. eigenvalues --    0.55116   0.55393   0.55821   0.56218   0.56807
 Alpha virt. eigenvalues --    0.57084   0.57742   0.58385   0.58980   0.59738
 Alpha virt. eigenvalues --    0.59942   0.60053   0.60166   0.60693   0.61291
 Alpha virt. eigenvalues --    0.61831   0.62289   0.62636   0.62902   0.63170
 Alpha virt. eigenvalues --    0.64476   0.65093   0.66026   0.66595   0.67074
 Alpha virt. eigenvalues --    0.67308   0.67855   0.68312   0.68555   0.69333
 Alpha virt. eigenvalues --    0.69367   0.69441   0.69692   0.69990   0.70378
 Alpha virt. eigenvalues --    0.70727   0.70966   0.71244   0.71477   0.71945
 Alpha virt. eigenvalues --    0.72096   0.72578   0.72918   0.73120   0.73485
 Alpha virt. eigenvalues --    0.73804   0.73992   0.74545   0.74887   0.75199
 Alpha virt. eigenvalues --    0.75410   0.75765   0.76040   0.76341   0.76580
 Alpha virt. eigenvalues --    0.76831   0.77057   0.77453   0.77761   0.78521
 Alpha virt. eigenvalues --    0.78722   0.79511   0.79955   0.80150   0.80423
 Alpha virt. eigenvalues --    0.80636   0.80752   0.81098   0.81411   0.81472
 Alpha virt. eigenvalues --    0.81626   0.81858   0.82280   0.82309   0.82947
 Alpha virt. eigenvalues --    0.83525   0.83740   0.84086   0.84254   0.84306
 Alpha virt. eigenvalues --    0.84699   0.84946   0.85388   0.85605   0.85734
 Alpha virt. eigenvalues --    0.85937   0.86376   0.86531   0.87407   0.88036
 Alpha virt. eigenvalues --    0.88583   0.89408   0.89600   0.89795   0.90293
 Alpha virt. eigenvalues --    0.90761   0.90940   0.91167   0.91467   0.92017
 Alpha virt. eigenvalues --    0.92289   0.92695   0.92799   0.93387   0.93819
 Alpha virt. eigenvalues --    0.94232   0.94406   0.94855   0.95247   0.95407
 Alpha virt. eigenvalues --    0.96025   0.96209   0.96388   0.96526   0.97410
 Alpha virt. eigenvalues --    0.97624   0.98090   0.98278   0.98513   0.99116
 Alpha virt. eigenvalues --    0.99343   0.99618   1.00363   1.01205   1.02140
 Alpha virt. eigenvalues --    1.02917   1.03302   1.03853   1.04722   1.05819
 Alpha virt. eigenvalues --    1.06816   1.07005   1.07760   1.07807   1.08328
 Alpha virt. eigenvalues --    1.09097   1.09363   1.09836   1.09974   1.10918
 Alpha virt. eigenvalues --    1.11087   1.11544   1.11962   1.12309   1.12672
 Alpha virt. eigenvalues --    1.13290   1.13815   1.14062   1.14455   1.14685
 Alpha virt. eigenvalues --    1.15035   1.15725   1.16032   1.16358   1.16723
 Alpha virt. eigenvalues --    1.16875   1.17364   1.18096   1.18321   1.18865
 Alpha virt. eigenvalues --    1.19006   1.20003   1.20115   1.21367   1.21660
 Alpha virt. eigenvalues --    1.21756   1.22188   1.22222   1.22901   1.23162
 Alpha virt. eigenvalues --    1.23653   1.23792   1.23988   1.24503   1.24668
 Alpha virt. eigenvalues --    1.24784   1.25076   1.25597   1.25996   1.26328
 Alpha virt. eigenvalues --    1.26579   1.26946   1.27173   1.27287   1.27351
 Alpha virt. eigenvalues --    1.27704   1.27848   1.28146   1.28672   1.29063
 Alpha virt. eigenvalues --    1.29251   1.29387   1.29605   1.29672   1.29803
 Alpha virt. eigenvalues --    1.29843   1.30078   1.30580   1.30700   1.30740
 Alpha virt. eigenvalues --    1.31057   1.31463   1.31552   1.31694   1.32372
 Alpha virt. eigenvalues --    1.32591   1.33099   1.33303   1.33575   1.33895
 Alpha virt. eigenvalues --    1.34292   1.34623   1.35007   1.35556   1.36435
 Alpha virt. eigenvalues --    1.36502   1.36863   1.37205   1.37468   1.37615
 Alpha virt. eigenvalues --    1.38117   1.38664   1.38748   1.39094   1.39788
 Alpha virt. eigenvalues --    1.40138   1.40528   1.41380   1.42197   1.42608
 Alpha virt. eigenvalues --    1.43158   1.43715   1.44278   1.44559   1.44936
 Alpha virt. eigenvalues --    1.45418   1.45609   1.47388   1.47496   1.47644
 Alpha virt. eigenvalues --    1.49088   1.49810   1.51124   1.51843   1.55485
 Alpha virt. eigenvalues --    1.56627   1.57099   1.57715   1.57940   1.58491
 Alpha virt. eigenvalues --    1.58624   1.59084   1.59462   1.59533   1.59620
 Alpha virt. eigenvalues --    1.60332   1.60440   1.60715   1.60739   1.61010
 Alpha virt. eigenvalues --    1.61141   1.61420   1.61617   1.61818   1.61831
 Alpha virt. eigenvalues --    1.61933   1.62231   1.62468   1.63150   1.63331
 Alpha virt. eigenvalues --    1.63680   1.63721   1.63913   1.64164   1.64823
 Alpha virt. eigenvalues --    1.64923   1.64986   1.65355   1.65796   1.65979
 Alpha virt. eigenvalues --    1.66390   1.66586   1.67256   1.67307   1.67846
 Alpha virt. eigenvalues --    1.67945   1.68161   1.68290   1.68464   1.68624
 Alpha virt. eigenvalues --    1.68917   1.69243   1.70129   1.70456   1.70579
 Alpha virt. eigenvalues --    1.70632   1.71319   1.71451   1.72103   1.72209
 Alpha virt. eigenvalues --    1.72273   1.72579   1.72771   1.72867   1.73003
 Alpha virt. eigenvalues --    1.73982   1.74554   1.75014   1.75169   1.75324
 Alpha virt. eigenvalues --    1.75527   1.75836   1.75965   1.76046   1.76245
 Alpha virt. eigenvalues --    1.76481   1.76778   1.77080   1.77189   1.77381
 Alpha virt. eigenvalues --    1.77497   1.77672   1.77712   1.77870   1.78370
 Alpha virt. eigenvalues --    1.78534   1.78682   1.78716   1.79081   1.79119
 Alpha virt. eigenvalues --    1.79717   1.79814   1.80237   1.80684   1.80964
 Alpha virt. eigenvalues --    1.81091   1.81164   1.81303   1.81513   1.81569
 Alpha virt. eigenvalues --    1.81680   1.81957   1.82075   1.82537   1.82604
 Alpha virt. eigenvalues --    1.83120   1.83473   1.83622   1.83898   1.84135
 Alpha virt. eigenvalues --    1.84597   1.84720   1.85043   1.85259   1.85623
 Alpha virt. eigenvalues --    1.85848   1.86227   1.86445   1.87052   1.87132
 Alpha virt. eigenvalues --    1.87543   1.87595   1.87803   1.88195   1.88775
 Alpha virt. eigenvalues --    1.89135   1.89227   1.89526   1.89577   1.89865
 Alpha virt. eigenvalues --    1.90282   1.90690   1.90823   1.91233   1.91342
 Alpha virt. eigenvalues --    1.91948   1.92168   1.92666   1.92955   1.93386
 Alpha virt. eigenvalues --    1.93582   1.93796   1.93903   1.94495   1.95053
 Alpha virt. eigenvalues --    1.95488   1.95777   1.95957   1.96383   1.96608
 Alpha virt. eigenvalues --    1.96863   1.97531   1.97706   1.97905   1.98589
 Alpha virt. eigenvalues --    1.98773   1.99339   2.00464   2.00877   2.01256
 Alpha virt. eigenvalues --    2.01603   2.02007   2.02201   2.02576   2.03178
 Alpha virt. eigenvalues --    2.03454   2.05002   2.05425   2.06464   2.07336
 Alpha virt. eigenvalues --    2.07711   2.07915   2.08258   2.08515   2.08973
 Alpha virt. eigenvalues --    2.10002   2.10542   2.11114   2.12096   2.12897
 Alpha virt. eigenvalues --    2.13222   2.13562   2.13592   2.14020   2.14707
 Alpha virt. eigenvalues --    2.15078   2.15442   2.16112   2.16328   2.17339
 Alpha virt. eigenvalues --    2.19521   2.20070   2.20098   2.20360   2.20810
 Alpha virt. eigenvalues --    2.20889   2.21302   2.21321   2.21465   2.21803
 Alpha virt. eigenvalues --    2.22389   2.22913   2.23130   2.23280   2.23610
 Alpha virt. eigenvalues --    2.23689   2.23884   2.24438   2.24595   2.25068
 Alpha virt. eigenvalues --    2.25442   2.26299   2.26795   2.27075   2.27909
 Alpha virt. eigenvalues --    2.28469   2.28813   2.29123   2.29633   2.29966
 Alpha virt. eigenvalues --    2.30237   2.31409   2.31811   2.31924   2.32109
 Alpha virt. eigenvalues --    2.32298   2.32452   2.32750   2.33148   2.33373
 Alpha virt. eigenvalues --    2.33646   2.33931   2.34092   2.34465   2.34858
 Alpha virt. eigenvalues --    2.35359   2.35760   2.35861   2.36076   2.36860
 Alpha virt. eigenvalues --    2.37082   2.37263   2.37495   2.38277   2.38751
 Alpha virt. eigenvalues --    2.38949   2.39373   2.39576   2.39832   2.40091
 Alpha virt. eigenvalues --    2.40375   2.40573   2.40982   2.41704   2.42190
 Alpha virt. eigenvalues --    2.43365   2.44038   2.44547   2.44982   2.45155
 Alpha virt. eigenvalues --    2.45884   2.46298   2.46688   2.47472   2.48458
 Alpha virt. eigenvalues --    2.49052   2.49407   2.49911   2.50308   2.50682
 Alpha virt. eigenvalues --    2.51791   2.52327   2.52571   2.52945   2.53322
 Alpha virt. eigenvalues --    2.53439   2.53536   2.53678   2.53821   2.54145
 Alpha virt. eigenvalues --    2.54744   2.55250   2.55585   2.55827   2.57092
 Alpha virt. eigenvalues --    2.57542   2.57800   2.58352   2.58923   2.59298
 Alpha virt. eigenvalues --    2.59395   2.59876   2.60096   2.60865   2.61832
 Alpha virt. eigenvalues --    2.62175   2.62793   2.64325   2.64684   2.64823
 Alpha virt. eigenvalues --    2.65216   2.66221   2.66614   2.67185   2.68022
 Alpha virt. eigenvalues --    2.69591   2.70303   2.71029   2.71239   2.71362
 Alpha virt. eigenvalues --    2.71698   2.71990   2.72150   2.72650   2.74425
 Alpha virt. eigenvalues --    2.74945   2.75797   2.75903   2.76514   2.76808
 Alpha virt. eigenvalues --    2.78801   2.81199   2.82342   2.83140   2.83777
 Alpha virt. eigenvalues --    2.85322   2.86176   2.86798   2.88468   2.88801
 Alpha virt. eigenvalues --    2.89665   2.91077   2.92766   2.94360   2.94497
 Alpha virt. eigenvalues --    2.96940   2.97451   2.98878   2.99074   3.00311
 Alpha virt. eigenvalues --    3.01041   3.01583   3.02853   3.04130   3.05433
 Alpha virt. eigenvalues --    3.05653   3.05781   3.05890   3.07430   3.08470
 Alpha virt. eigenvalues --    3.08687   3.09926   3.12717   3.13012   3.13395
 Alpha virt. eigenvalues --    3.14008   3.15199   3.15840   3.16029   3.16679
 Alpha virt. eigenvalues --    3.17181   3.18189   3.20478   3.20634   3.22209
 Alpha virt. eigenvalues --    3.22531   3.23544   3.23737   3.23957   3.24340
 Alpha virt. eigenvalues --    3.27070   3.30452   3.32021   3.34134   3.34486
 Alpha virt. eigenvalues --    3.34719   3.35082   3.35570   3.35687   3.36576
 Alpha virt. eigenvalues --    3.38482   3.39249   3.40546   3.41083   3.41171
 Alpha virt. eigenvalues --    3.41389   3.44183   3.46547   3.61637   3.64398
 Alpha virt. eigenvalues --    3.66838   3.66897   3.68910   3.75225   3.78548
 Alpha virt. eigenvalues --    3.79766   3.80228  18.81095
          Condensed to atoms (all electrons):
 Mulliken charges:
               1
     1  C    0.011323
     2  C    0.465850
     3  C   -0.282328
     4  C    0.343783
     5  C    0.117159
     6  C   -0.271456
     7  C    0.078360
     8  C    0.402925
     9  C   -0.314257
    10  C    0.341507
    11  C   -0.368033
    12  C    0.316010
    13  H    0.142015
    14  H    0.135187
    15  H    0.134777
    16  N    0.238988
    17  N    0.301187
    18  N    0.240721
    19  N    0.236320
    20  C   -0.167701
    21  H    0.134939
    22  C   -0.223411
    23  H    0.132091
    24  C    0.235961
    25  C   -0.263153
    26  H    0.135092
    27  C    0.273564
    28  C    0.148030
    29  C    0.059875
    30  C    0.051154
    31  C   -0.555979
    32  C    0.183777
    33  C    0.160264
    34  C    0.233181
    35  C    0.254560
    36  C    0.570464
    37  C   -0.449114
    38  C    0.073098
    39  C    0.061303
    40  C    0.345059
    41  C    0.353264
    42  C    0.480976
    43  C   -0.658876
    44  C    0.200849
    45  C    0.203800
    46  C    0.214143
    47  C    0.247587
    48  C    0.569587
    49  C   -0.741886
    50  C   -0.146834
    51  H    0.154005
    52  F   -0.286425
    53  F   -0.338195
    54  F   -0.338684
    55  F   -0.339127
    56  F   -0.285139
    57  F   -0.281620
    58  F   -0.343055
    59  F   -0.338402
    60  F   -0.342887
    61  F   -0.281852
    62  F   -0.285288
    63  F   -0.336821
    64  F   -0.337990
    65  F   -0.336527
    66  F   -0.280585
    67  H    0.146099
    68  C    0.107669
    69  C   -0.141531
    70  H    0.169631
    71  S    0.213724
    72  Pd  -0.302499
    73  O   -0.513126
    74  H    0.377419
    75  H    0.155504
 Sum of Mulliken charges =   0.00000
 Mulliken charges with hydrogens summed into heavy atoms:
               1
     1  C    0.011323
     2  C    0.465850
     3  C   -0.147552
     4  C    0.343783
     5  C    0.117159
     6  C   -0.115953
     7  C    0.078360
     8  C    0.402925
     9  C   -0.179070
    10  C    0.341507
    11  C   -0.226018
    12  C    0.316010
    16  N    0.238988
    17  N    0.301187
    18  N    0.240721
    19  N    0.236320
    20  C   -0.032762
    22  C   -0.091320
    24  C    0.235961
    25  C   -0.128061
    27  C    0.273564
    28  C    0.148030
    29  C    0.059875
    30  C    0.051154
    31  C   -0.555979
    32  C    0.183777
    33  C    0.160264
    34  C    0.233181
    35  C    0.254560
    36  C    0.570464
    37  C   -0.449114
    38  C    0.073098
    39  C    0.061303
    40  C    0.345059
    41  C    0.353264
    42  C    0.480976
    43  C   -0.658876
    44  C    0.200849
    45  C    0.203800
    46  C    0.214143
    47  C    0.247587
    48  C    0.569587
    49  C   -0.741886
    50  C   -0.000735
    52  F   -0.286425
    53  F   -0.338195
    54  F   -0.338684
    55  F   -0.339127
    56  F   -0.285139
    57  F   -0.281620
    58  F   -0.343055
    59  F   -0.338402
    60  F   -0.342887
    61  F   -0.281852
    62  F   -0.285288
    63  F   -0.336821
    64  F   -0.337990
    65  F   -0.336527
    66  F   -0.280585
    68  C    0.261674
    69  C    0.028100
    71  S    0.213724
    72  Pd  -0.302499
    73  O   -0.135707
 Electronic spatial extent (au):  <R**2>=          58706.8335
 Charge=              0.0000 electrons
 Dipole moment (field-independent basis, Debye):
    X=             -2.8907    Y=             -3.7429    Z=             -0.6087  Tot=              4.7683
 Quadrupole moment (field-independent basis, Debye-Ang):
   XX=           -377.0733   YY=           -354.6507   ZZ=           -397.1834
   XY=             24.8211   XZ=              3.1384   YZ=              3.6916
 Traceless Quadrupole moment (field-independent basis, Debye-Ang):
   XX=             -0.7708   YY=             21.6517   ZZ=            -20.8809
   XY=             24.8211   XZ=              3.1384   YZ=              3.6916
 Octapole moment (field-independent basis, Debye-Ang**2):
  XXX=              1.5834  YYY=           -202.3691  ZZZ=             -1.4992  XYY=           -195.8290
  XXY=            -76.0009  XXZ=             -6.8392  XZZ=              1.8436  YZZ=             -7.0160
  YYZ=            -13.5356  XYZ=            -30.6250
 Hexadecapole moment (field-independent basis, Debye-Ang**3):
 XXXX=         -44046.2716 YYYY=         -28361.0250 ZZZZ=          -3051.0425 XXXY=           1648.1267
 XXXZ=           -147.2758 YYYX=            -15.9883 YYYZ=            100.2911 ZZZX=            -22.1961
 ZZZY=             22.8662 XXYY=         -11117.3741 XXZZ=          -8026.7738 YYZZ=          -5501.8492
 XXYZ=             38.5908 YYXZ=            186.6015 ZZXY=            -34.2176
 N-N= 1.015039999056D+04 E-N=-2.949471500330D+04  KE= 3.821625317958D+03
 Unable to Open any file for archive entry.
 1\1\GINC-CCCC113\SP\RB3LYP TD-FC\GenECP\C42H11F15N4O1Pd1S1\CPI\03-Sep-
 2022\0\\# td=(nstates=75) b3lyp/genecp geom=connectivity scf=maxcyc=10
 00\\title\\0,1\C,0,-1.97872,-2.819421,-0.089517\C,0,2.193758,1.709433,
 -0.038827\C,0,4.22311,0.722105,-0.03558\C,0,3.174732,-0.273034,0.00448
 \C,0,2.372391,-2.622625,0.082789\C,0,1.366769,-4.641739,0.168712\C,0,0
 .396519,-3.589573,0.071293\C,0,-0.154986,2.50808,-0.017476\C,0,-1.1495
 96,3.5603,0.007623\C,0,-2.934143,-0.824884,-0.043502\C,0,-3.984865,-1.
 791195,-0.125812\C,0,-2.139774,1.532346,0.010235\H,0,-5.040202,-1.5718
 27,-0.188145\H,0,-0.934905,4.61844,0.003913\H,0,5.281588,0.509112,-0.0
 48782\N,0,1.02641,-2.372774,0.025339\N,0,-1.725191,-1.466358,-0.031851
 \N,0,1.951557,0.361643,-0.003717\N,0,-0.783949,1.291403,-0.015581\C,0,
 3.62233,1.938051,-0.05801\H,0,4.096291,2.907901,-0.079738\C,0,2.59161,
 -4.043374,0.174809\H,0,3.557308,-4.521531,0.244017\C,0,-3.410962,-3.03
 6807,-0.17627\C,0,-2.365728,2.962097,0.033709\H,0,-3.334259,3.438208,0
 .066752\C,0,-0.987472,-3.813917,0.008462\C,0,-3.14411,0.570469,-0.0020
 38\C,0,3.388237,-1.648846,0.055797\C,0,1.227809,2.724207,-0.040624\C,0
 ,4.802045,-2.133155,0.087926\C,0,5.388402,-2.743307,-1.02609\C,0,5.594
 073,-2.002839,1.233539\C,0,6.702343,-3.20556,-1.007575\C,0,6.911879,-2
 .453261,1.274221\C,0,7.466148,-3.058034,0.148287\C,0,1.709545,4.139329
 ,-0.063376\C,0,2.225554,4.715778,-1.228843\C,0,1.665924,4.945083,1.079
 289\C,0,2.681791,6.03173,-1.262239\C,0,2.110043,6.265571,1.069018\C,0,
 2.621425,6.808873,-0.107526\C,0,-4.561635,1.0447,0.021475\C,0,-5.15785
 1,1.628989,-1.101101\C,0,-5.352849,0.916879,1.168299\C,0,-6.478337,2.0
 73236,-1.088063\C,0,-6.676791,1.348581,1.203636\C,0,-7.239819,1.930388
 ,0.06973\C,0,-4.153614,-4.295948,-0.30496\C,0,-5.016411,-6.327774,-1.1
 06286\H,0,-3.326185,-5.25367,-2.065646\F,0,5.090449,-1.430048,2.334415
 \F,0,7.643659,-2.314068,2.38486\F,0,8.72709,-3.494981,0.176465\F,0,7.2
 35349,-3.782706,-2.089789\F,0,4.682395,-2.896473,-2.15365\F,0,2.295237
 ,3.996178,-2.356375\F,0,3.170374,6.553674,-2.392476\F,0,3.052659,8.072
 026,-0.128441\F,0,2.054082,7.01055,2.178277\F,0,1.18208,4.452242,2.226
 942\F,0,-4.455492,1.77667,-2.231948\F,0,-7.019405,2.628365,-2.177757\F
 ,0,-8.506621,2.350175,0.092741\F,0,-7.40646,1.213797,2.316102\F,0,-4.8
 40566,0.364131,2.275402\H,0,-5.086316,-7.185833,-1.764586\C,0,-4.05111
 2,-5.28939,-1.259691\C,0,-5.854722,-6.118201,-0.045552\H,0,-6.667788,-
 6.7428,0.298182\S,0,-5.472356,-4.653481,0.794335\Pd,0,0.118043,-0.5446
 15,-0.006332\O,0,-1.31833,-5.126134,0.059275\H,0,-2.283938,-5.240916,0
 .040766\H,0,1.12986,-5.693264,0.222525\\Version=ES64L-G16RevC.01\State
 =1-A\HF=-3923.9092228\RMSD=9.111e-09\PG=C01 [X(C42H11F15N4O1Pd1S1)]\\@
 The archive entry for this job was punched.


 YOU CAN LEAD A BOY TO COLLEGE....
 BUT YOU CANNOT MAKE HIM THINK....
           ELBERT HUBBARD
 Job cpu time:       6 days 14 hours  4 minutes 21.0 seconds.
 Elapsed time:       0 days  9 hours 53 minutes 24.8 seconds.
 File lengths (MBytes):  RWF=  46809 Int=      0 D2E=      0 Chk=   3651 Scr=      1
 Normal termination of Gaussian 16 at Sat Sep  3 22:01:48 2022.
