 Entering Gaussian System, Link 0=/local/apl/lx/g16c01/g16/._.g16
 Initial command:
 /local/apl/lx/g16c01/g16/l1.exe "/work/users/cpi/tmp.117767/Gau-117830.inp" -scrdir="/work/users/cpi/tmp.117767/"
 Entering Link 1 = /local/apl/lx/g16c01/g16/l1.exe PID=    117832.
  
 Copyright (c) 1988-2019, Gaussian, Inc.  All Rights Reserved.
  
 This is part of the Gaussian(R) 16 program.  It is based on
 the Gaussian(R) 09 system (copyright 2009, Gaussian, Inc.),
 the Gaussian(R) 03 system (copyright 2003, Gaussian, Inc.),
 the Gaussian(R) 98 system (copyright 1998, Gaussian, Inc.),
 the Gaussian(R) 94 system (copyright 1995, Gaussian, Inc.),
 the Gaussian 92(TM) system (copyright 1992, Gaussian, Inc.),
 the Gaussian 90(TM) system (copyright 1990, Gaussian, Inc.),
 the Gaussian 88(TM) system (copyright 1988, Gaussian, Inc.),
 the Gaussian 86(TM) system (copyright 1986, Carnegie Mellon
 University), and the Gaussian 82(TM) system (copyright 1983,
 Carnegie Mellon University). Gaussian is a federally registered
 trademark of Gaussian, Inc.
  
 This software contains proprietary and confidential information,
 including trade secrets, belonging to Gaussian, Inc.
  
 This software is provided under written license and may be
 used, copied, transmitted, or stored only in accord with that
 written license.
  
 The following legend is applicable only to US Government
 contracts under FAR:
  
                    RESTRICTED RIGHTS LEGEND
  
 Use, reproduction and disclosure by the US Government is
 subject to restrictions as set forth in subparagraphs (a)
 and (c) of the Commercial Computer Software - Restricted
 Rights clause in FAR 52.227-19.
  
 Gaussian, Inc.
 340 Quinnipiac St., Bldg. 40, Wallingford CT 06492
  
  
 ---------------------------------------------------------------
 Warning -- This program may not be used in any manner that
 competes with the business of Gaussian, Inc. or will provide
 assistance to any competitor of Gaussian, Inc.  The licensee
 of this program is prohibited from giving any competitor of
 Gaussian, Inc. access to this program.  By using this program,
 the user acknowledges that Gaussian, Inc. is engaged in the
 business of creating and licensing software in the field of
 computational chemistry and represents and warrants to the
 licensee that it is not a competitor of Gaussian, Inc. and that
 it will not use this program in any manner prohibited above.
 ---------------------------------------------------------------
  

 Cite this work as:
 Gaussian 16, Revision C.01,
 M. J. Frisch, G. W. Trucks, H. B. Schlegel, G. E. Scuseria, 
 M. A. Robb, J. R. Cheeseman, G. Scalmani, V. Barone, 
 G. A. Petersson, H. Nakatsuji, X. Li, M. Caricato, A. V. Marenich, 
 J. Bloino, B. G. Janesko, R. Gomperts, B. Mennucci, H. P. Hratchian, 
 J. V. Ortiz, A. F. Izmaylov, J. L. Sonnenberg, D. Williams-Young, 
 F. Ding, F. Lipparini, F. Egidi, J. Goings, B. Peng, A. Petrone, 
 T. Henderson, D. Ranasinghe, V. G. Zakrzewski, J. Gao, N. Rega, 
 G. Zheng, W. Liang, M. Hada, M. Ehara, K. Toyota, R. Fukuda, 
 J. Hasegawa, M. Ishida, T. Nakajima, Y. Honda, O. Kitao, H. Nakai, 
 T. Vreven, K. Throssell, J. A. Montgomery, Jr., J. E. Peralta, 
 F. Ogliaro, M. J. Bearpark, J. J. Heyd, E. N. Brothers, K. N. Kudin, 
 V. N. Staroverov, T. A. Keith, R. Kobayashi, J. Normand, 
 K. Raghavachari, A. P. Rendell, J. C. Burant, S. S. Iyengar, 
 J. Tomasi, M. Cossi, J. M. Millam, M. Klene, C. Adamo, R. Cammi, 
 J. W. Ochterski, R. L. Martin, K. Morokuma, O. Farkas, 
 J. B. Foresman, and D. J. Fox, Gaussian, Inc., Wallingford CT, 2019.
 
 ******************************************
 Gaussian 16:  ES64L-G16RevC.01  3-Jul-2019
                 3-Sep-2022 
 ******************************************
 %mem=100GB
 %nprocshare=16
 Will use up to   16 processors via shared memory.
 %chk=Pd_3C6F5_Por_dithiophene_O-.chk
 ----------------------------------------------------------------
 # td=(nstates=75) b3lyp/genecp geom=connectivity scf=maxcyc=1000
 ----------------------------------------------------------------
 1/38=1,57=2,172=1/1;
 2/12=2,17=6,18=5,40=1/2;
 3/5=7,11=9,16=1,17=8,25=1,30=1,74=-5/1,2,3,8;
 4//1;
 5/5=2,7=1000,38=5/2;
 8/6=1,10=1,108=75/1;
 9/41=75,42=1,70=2/14;
 6/7=2,8=2,9=2,10=2/1;
 99/5=1,9=1/99;
 -----
 title
 -----
 Symbolic Z-matrix:
 Charge = -1 Multiplicity = 1
 C                    -1.27685  -2.75684  -0.56486 
 C                     1.2503    2.83058  -0.17195 
 C                     3.47737   2.53009   0.09058 
 C                     2.79789   1.25634   0.04337 
 C                     2.77748  -1.24156  -0.03508 
 C                     2.5109   -3.47048  -0.39892 
 C                     1.2603   -2.76354  -0.5642 
 C                    -1.23688   2.83912  -0.18055 
 C                    -2.51606   3.51287  -0.09793 
 C                    -2.78837  -1.22498  -0.04824 
 C                    -3.45559  -2.47578  -0.06282 
 C                    -2.79552   1.27342   0.01834 
 H                    -4.50982  -2.62997   0.11755 
 H                    -2.66206   4.58355  -0.12624 
 H                     4.54287   2.66615   0.2133 
 N                     1.44049  -1.43507  -0.31255 
 N                    -1.45124  -1.42642  -0.31949 
 N                     1.44311   1.47772  -0.12368 
 N                    -1.43713   1.48716  -0.1272 
 C                     2.53046   3.49794  -0.05843 
 H                     2.68041   4.56847  -0.07002 
 C                     3.4387   -2.4955   -0.05368 
 H                     4.49168  -2.65561   0.12881 
 C                    -2.53129  -3.45695  -0.3999 
 C                    -3.46964   2.55066   0.04398 
 H                    -4.53658   2.69259   0.14575 
 C                    -0.00971  -3.36017  -0.96796 
 C                    -3.41523   0.03362   0.10326 
 C                     3.40984   0.01276   0.12871 
 C                     0.00909   3.48375  -0.24243 
 C                     4.88813  -0.0107    0.36902 
 C                     5.80881  -0.00829  -0.68478 
 C                     5.41963  -0.04914   1.66276 
 C                     7.186    -0.03757  -0.47118 
 C                     6.79235  -0.07983   1.90412 
 C                     7.67874  -0.07499   0.83056 
 C                     0.01758   4.9767   -0.3177 
 C                     0.18772   5.6504   -1.53408 
 C                    -0.13874   5.78187   0.81792 
 C                     0.20249   7.04155  -1.62455 
 C                    -0.13081   7.17452   0.75593 
 C                     0.04127   7.80665  -0.47263 
 C                    -4.89612   0.01969   0.32776 
 C                    -5.80531   0.0111   -0.73595 
 C                    -5.44178   0.00202   1.61605 
 C                    -7.18484  -0.00916  -0.53701 
 C                    -6.81718  -0.01944   1.84281 
 C                    -7.69184  -0.02602   0.75968 
 C                    -2.86224  -4.88174  -0.44236 
 C                    -3.09913  -7.15726  -0.97803 
 H                    -1.65926  -5.78314  -1.97885 
 C                     2.83556  -4.89647  -0.44842 
 C                     3.06497  -7.16946  -0.99785 
 H                     1.63419  -5.78323  -1.99476 
 F                     4.60136  -0.05414   2.72759 
 F                     7.26794  -0.11268   3.16138 
 F                     9.00336  -0.10181   1.04955 
 F                     8.04213  -0.02855  -1.50802 
 F                     5.37791   0.02987  -1.95603 
 F                     0.3409    4.95525  -2.67311 
 F                     0.36648   7.65173  -2.81194 
 F                     0.05203   9.14775  -0.54593 
 F                    -0.28284   7.91333   1.86979 
 F                    -0.29909   5.21788   2.02679 
 F                    -5.36049   0.03002  -2.00287 
 F                    -8.02963  -0.01082  -1.58317 
 F                    -9.01888  -0.04406   0.96454 
 F                    -7.30653  -0.03272   3.09512 
 F                    -4.63517   0.00821   2.68968 
 H                     2.84958  -8.08399  -1.54071 
 H                    -2.8856   -8.07611  -1.51428 
 O                    -0.01243  -4.41509  -1.63352 
 C                     2.40545  -5.93036  -1.25372 
 C                    -2.43357  -5.92254  -1.2395 
 C                    -4.03541  -7.06809   0.01918 
 H                    -4.67101  -7.84717   0.41866 
 S                    -4.11096  -5.46164   0.66473 
 S                     4.07786  -5.4886    0.65937 
 C                     3.99799  -7.09055   0.00329 
 H                     4.62882  -7.87484   0.40013 
 Pd                   -0.00125   0.0272   -0.2431 
 
 Stoichiometry    C46H12F15N4OPdS2(1-)
 Framework group  C1[X(C46H12F15N4OPdS2)]
 Deg. of freedom   237
 Full point group                 C1      NOp   1
 Largest Abelian subgroup         C1      NOp   1
 Largest concise Abelian subgroup C1      NOp   1
                         Standard orientation:                         
 ---------------------------------------------------------------------
 Center     Atomic      Atomic             Coordinates (Angstroms)
 Number     Number       Type             X           Y           Z
 ---------------------------------------------------------------------
      1          6           0       -1.276848   -2.756837   -0.564856
      2          6           0        1.250301    2.830580   -0.171950
      3          6           0        3.477370    2.530088    0.090578
      4          6           0        2.797890    1.256343    0.043371
      5          6           0        2.777483   -1.241563   -0.035075
      6          6           0        2.510896   -3.470478   -0.398922
      7          6           0        1.260300   -2.763542   -0.564197
      8          6           0       -1.236876    2.839118   -0.180549
      9          6           0       -2.516057    3.512865   -0.097929
     10          6           0       -2.788367   -1.224977   -0.048243
     11          6           0       -3.455590   -2.475783   -0.062817
     12          6           0       -2.795524    1.273419    0.018344
     13          1           0       -4.509821   -2.629968    0.117548
     14          1           0       -2.662060    4.583548   -0.126243
     15          1           0        4.542873    2.666149    0.213295
     16          7           0        1.440494   -1.435066   -0.312547
     17          7           0       -1.451244   -1.426418   -0.319492
     18          7           0        1.443109    1.477722   -0.123676
     19          7           0       -1.437127    1.487162   -0.127195
     20          6           0        2.530458    3.497942   -0.058427
     21          1           0        2.680414    4.568468   -0.070017
     22          6           0        3.438697   -2.495503   -0.053679
     23          1           0        4.491676   -2.655614    0.128808
     24          6           0       -2.531294   -3.456950   -0.399900
     25          6           0       -3.469638    2.550659    0.043983
     26          1           0       -4.536577    2.692593    0.145751
     27          6           0       -0.009714   -3.360168   -0.967964
     28          6           0       -3.415226    0.033623    0.103257
     29          6           0        3.409842    0.012757    0.128705
     30          6           0        0.009092    3.483748   -0.242426
     31          6           0        4.888132   -0.010701    0.369019
     32          6           0        5.808808   -0.008294   -0.684784
     33          6           0        5.419626   -0.049141    1.662764
     34          6           0        7.186004   -0.037566   -0.471180
     35          6           0        6.792345   -0.079826    1.904124
     36          6           0        7.678739   -0.074992    0.830561
     37          6           0        0.017575    4.976704   -0.317702
     38          6           0        0.187719    5.650403   -1.534081
     39          6           0       -0.138744    5.781871    0.817920
     40          6           0        0.202489    7.041554   -1.624551
     41          6           0       -0.130811    7.174521    0.755932
     42          6           0        0.041268    7.806654   -0.472634
     43          6           0       -4.896121    0.019689    0.327761
     44          6           0       -5.805311    0.011100   -0.735948
     45          6           0       -5.441782    0.002019    1.616049
     46          6           0       -7.184839   -0.009155   -0.537012
     47          6           0       -6.817183   -0.019441    1.842814
     48          6           0       -7.691838   -0.026016    0.759684
     49          6           0       -2.862240   -4.881738   -0.442360
     50          6           0       -3.099131   -7.157259   -0.978033
     51          1           0       -1.659259   -5.783142   -1.978851
     52          6           0        2.835558   -4.896467   -0.448423
     53          6           0        3.064973   -7.169464   -0.997851
     54          1           0        1.634190   -5.783227   -1.994757
     55          9           0        4.601359   -0.054136    2.727591
     56          9           0        7.267938   -0.112681    3.161380
     57          9           0        9.003364   -0.101810    1.049553
     58          9           0        8.042133   -0.028554   -1.508017
     59          9           0        5.377909    0.029867   -1.956034
     60          9           0        0.340903    4.955253   -2.673110
     61          9           0        0.366475    7.651726   -2.811938
     62          9           0        0.052034    9.147746   -0.545931
     63          9           0       -0.282844    7.913329    1.869794
     64          9           0       -0.299092    5.217880    2.026789
     65          9           0       -5.360492    0.030017   -2.002869
     66          9           0       -8.029630   -0.010815   -1.583174
     67          9           0       -9.018876   -0.044056    0.964538
     68          9           0       -7.306532   -0.032723    3.095122
     69          9           0       -4.635173    0.008206    2.689683
     70          1           0        2.849580   -8.083985   -1.540709
     71          1           0       -2.885603   -8.076108   -1.514282
     72          8           0       -0.012430   -4.415091   -1.633523
     73          6           0        2.405447   -5.930360   -1.253724
     74          6           0       -2.433565   -5.922542   -1.239504
     75          6           0       -4.035407   -7.068092    0.019175
     76          1           0       -4.671009   -7.847166    0.418655
     77         16           0       -4.110962   -5.461643    0.664732
     78         16           0        4.077855   -5.488600    0.659373
     79          6           0        3.997987   -7.090554    0.003292
     80          1           0        4.628815   -7.874837    0.400134
     81         46           0       -0.001247    0.027204   -0.243099
 ---------------------------------------------------------------------
 Rotational constants (GHZ):           0.0282006           0.0240035           0.0142963
 General basis read from cards:  (5D, 7F)
 ======================================================================================================
                                       Pseudopotential Parameters
 ======================================================================================================
  Center     Atomic      Valence      Angular      Power
  Number     Number     Electrons     Momentum     of R      Exponent        Coefficient   SO-Coeffient
 ======================================================================================================
    1          6
                                   No pseudopotential on this center.
    2          6
                                   No pseudopotential on this center.
    3          6
                                   No pseudopotential on this center.
    4          6
                                   No pseudopotential on this center.
    5          6
                                   No pseudopotential on this center.
    6          6
                                   No pseudopotential on this center.
    7          6
                                   No pseudopotential on this center.
    8          6
                                   No pseudopotential on this center.
    9          6
                                   No pseudopotential on this center.
   10          6
                                   No pseudopotential on this center.
   11          6
                                   No pseudopotential on this center.
   12          6
                                   No pseudopotential on this center.
   13          1
                                   No pseudopotential on this center.
   14          1
                                   No pseudopotential on this center.
   15          1
                                   No pseudopotential on this center.
   16          7
                                   No pseudopotential on this center.
   17          7
                                   No pseudopotential on this center.
   18          7
                                   No pseudopotential on this center.
   19          7
                                   No pseudopotential on this center.
   20          6
                                   No pseudopotential on this center.
   21          1
                                   No pseudopotential on this center.
   22          6
                                   No pseudopotential on this center.
   23          1
                                   No pseudopotential on this center.
   24          6
                                   No pseudopotential on this center.
   25          6
                                   No pseudopotential on this center.
   26          1
                                   No pseudopotential on this center.
   27          6
                                   No pseudopotential on this center.
   28          6
                                   No pseudopotential on this center.
   29          6
                                   No pseudopotential on this center.
   30          6
                                   No pseudopotential on this center.
   31          6
                                   No pseudopotential on this center.
   32          6
                                   No pseudopotential on this center.
   33          6
                                   No pseudopotential on this center.
   34          6
                                   No pseudopotential on this center.
   35          6
                                   No pseudopotential on this center.
   36          6
                                   No pseudopotential on this center.
   37          6
                                   No pseudopotential on this center.
   38          6
                                   No pseudopotential on this center.
   39          6
                                   No pseudopotential on this center.
   40          6
                                   No pseudopotential on this center.
   41          6
                                   No pseudopotential on this center.
   42          6
                                   No pseudopotential on this center.
   43          6
                                   No pseudopotential on this center.
   44          6
                                   No pseudopotential on this center.
   45          6
                                   No pseudopotential on this center.
   46          6
                                   No pseudopotential on this center.
   47          6
                                   No pseudopotential on this center.
   48          6
                                   No pseudopotential on this center.
   49          6
                                   No pseudopotential on this center.
   50          6
                                   No pseudopotential on this center.
   51          1
                                   No pseudopotential on this center.
   52          6
                                   No pseudopotential on this center.
   53          6
                                   No pseudopotential on this center.
   54          1
                                   No pseudopotential on this center.
   55          9
                                   No pseudopotential on this center.
   56          9
                                   No pseudopotential on this center.
   57          9
                                   No pseudopotential on this center.
   58          9
                                   No pseudopotential on this center.
   59          9
                                   No pseudopotential on this center.
   60          9
                                   No pseudopotential on this center.
   61          9
                                   No pseudopotential on this center.
   62          9
                                   No pseudopotential on this center.
   63          9
                                   No pseudopotential on this center.
   64          9
                                   No pseudopotential on this center.
   65          9
                                   No pseudopotential on this center.
   66          9
                                   No pseudopotential on this center.
   67          9
                                   No pseudopotential on this center.
   68          9
                                   No pseudopotential on this center.
   69          9
                                   No pseudopotential on this center.
   70          1
                                   No pseudopotential on this center.
   71          1
                                   No pseudopotential on this center.
   72          8
                                   No pseudopotential on this center.
   73          6
                                   No pseudopotential on this center.
   74          6
                                   No pseudopotential on this center.
   75          6
                                   No pseudopotential on this center.
   76          1
                                   No pseudopotential on this center.
   77         16
                                   No pseudopotential on this center.
   78         16
                                   No pseudopotential on this center.
   79          6
                                   No pseudopotential on this center.
   80          1
                                   No pseudopotential on this center.
   81         46           18
                                      F and up 
                                                     0      598.3336444       -0.05631770    0.00000000
                                                     1      162.4298290      -20.12880360    0.00000000
                                                     2       51.5714771     -105.81979230    0.00000000
                                                     2       16.4888260      -42.57333450    0.00000000
                                                     2        5.8287656       -3.61650860    0.00000000
                                      S - F
                                                     0       73.3806304        3.00036510    0.00000000
                                                     1       14.7550438       32.43500930    0.00000000
                                                     2       17.8350204      459.08303830    0.00000000
                                                     2       12.7111477     -868.06290290    0.00000000
                                                     2        9.3292063      514.47260980    0.00000000
                                      P - F
                                                     0       55.6689877        4.95930990    0.00000000
                                                     1       64.2337771       21.17110290    0.00000000
                                                     2       17.6254952      605.05600920    0.00000000
                                                     2       11.9058155     -726.96418460    0.00000000
                                                     2        8.5100832      396.32748830    0.00000000
                                      D - F
                                                     0       49.9994728        3.05087450    0.00000000
                                                     1       39.7477547       22.25065800    0.00000000
                                                     2       11.4321366      674.83576980    0.00000000
                                                     2        9.1790080    -1040.85540480    0.00000000
                                                     2        7.5624429      505.93751470    0.00000000
 ======================================================================================================
 There are  1384 symmetry adapted cartesian basis functions of A   symmetry.
 There are  1314 symmetry adapted basis functions of A   symmetry.
  1314 basis functions,  2357 primitive gaussians,  1384 cartesian basis functions
   255 alpha electrons      255 beta electrons
       nuclear repulsion energy     11584.4192461107 Hartrees.
 NAtoms=   81 NActive=   81 NUniq=   81 SFac= 1.00D+00 NAtFMM=   60 NAOKFM=T Big=T
 Integral buffers will be    131072 words long.
 Regular integral format.
 Two-electron integral symmetry is turned on.
 One-electron integrals computed using PRISM.
   1 Symmetry operations used in ECPInt.
 ECPInt:  NShTT=   74691 NPrTT=  411268 LenC2=   50253 LenP2D=  143847.
 LDataN:  DoStor=T MaxTD1= 5 Len=  102
 NBasis=  1314 RedAO= T EigKep=  1.06D-06  NBF=  1314
 NBsUse=  1294 1.00D-06 EigRej=  8.93D-07 NBFU=  1294
 Defaulting to unpruned grid for atomic number  46.
 ExpMin= 2.62D-02 ExpMax= 2.19D+04 ExpMxC= 3.30D+03 IAcc=3 IRadAn=         5 AccDes= 0.00D+00
 Harris functional with IExCor=  402 and IRadAn=       5 diagonalized for initial guess.
 HarFok:  IExCor=  402 AccDes= 0.00D+00 IRadAn=         5 IDoV= 1 UseB2=F ITyADJ=14
 ICtDFT=  3500011 ScaDFX=  1.000000  1.000000  1.000000  1.000000
 Defaulting to unpruned grid for atomic number  46.
 FoFCou: FMM=F IPFlag=           0 FMFlag=      100000 FMFlg1=        2001
         NFxFlg=           0 DoJE=T BraDBF=F KetDBF=T FulRan=T
         wScrn=  0.000000 ICntrl=       500 IOpCl=  0 I1Cent=   200000004 NGrid=           0
         NMat0=    1 NMatS0=      1 NMatT0=    0 NMatD0=    1 NMtDS0=    0 NMtDT0=    0
 Petite list used in FoFCou.
 Requested convergence on RMS density matrix=1.00D-08 within1000 cycles.
 Requested convergence on MAX density matrix=1.00D-06.
 Requested convergence on             energy=1.00D-06.
 No special actions if energy rises.
 Defaulting to unpruned grid for atomic number  46.
 Defaulting to unpruned grid for atomic number  46.
 Defaulting to unpruned grid for atomic number  46.
 Defaulting to unpruned grid for atomic number  46.
 Defaulting to unpruned grid for atomic number  46.
 Defaulting to unpruned grid for atomic number  46.
 Defaulting to unpruned grid for atomic number  46.
 Defaulting to unpruned grid for atomic number  46.
 Defaulting to unpruned grid for atomic number  46.
 Defaulting to unpruned grid for atomic number  46.
 Defaulting to unpruned grid for atomic number  46.
 Defaulting to unpruned grid for atomic number  46.
 Defaulting to unpruned grid for atomic number  46.
 Defaulting to unpruned grid for atomic number  46.
 Defaulting to unpruned grid for atomic number  46.
 Defaulting to unpruned grid for atomic number  46.
 EnCoef did     6 forward-backward iterations
 EnCoef did   100 forward-backward iterations
 EnCoef did   100 forward-backward iterations
 EnCoef did   100 forward-backward iterations
 EnCoef did   100 forward-backward iterations
 EnCoef did   100 forward-backward iterations
 EnCoef did     1 forward-backward iterations
 EnCoef did     3 forward-backward iterations
 Restarting incremental Fock formation.
 SCF Done:  E(RB3LYP) =  -4475.22308012     A.U. after   28 cycles
            NFock= 28  Conv=0.72D-08     -V/T= 2.0239
 DoSCS=F DFT=T ScalE2(SS,OS)=  1.000000  1.000000
 ExpMin= 2.62D-02 ExpMax= 2.19D+04 ExpMxC= 3.30D+03 IAcc=3 IRadAn=         5 AccDes= 0.00D+00
 HarFok:  IExCor=  205 AccDes= 0.00D+00 IRadAn=         5 IDoV=-2 UseB2=F ITyADJ=14
 ICtDFT= 12500011 ScaDFX=  1.000000  1.000000  1.000000  1.000000
 Defaulting to unpruned grid for atomic number  46.
 GSVD:  LWork=       -7040 too small for GESVD, short by       33200 words or       33200 for optimal perf.
 Range of M.O.s used for correlation:    81  1294
 NBasis=  1314 NAE=   255 NBE=   255 NFC=    80 NFV=     0
 NROrb=   1214 NOA=   175 NOB=   175 NVA=  1039 NVB=  1039

 **** Warning!!: The largest alpha MO coefficient is  0.11748959D+03


 **** Warning!!: The smallest alpha delta epsilon is  0.80830218D-01

 Orbital symmetries:
       Occupied  (A) (A) (A) (A) (A) (A) (A) (A) (A) (A) (A) (A)
                 (A) (A) (A) (A) (A) (A) (A) (A) (A) (A) (A) (A)
                 (A) (A) (A) (A) (A) (A) (A) (A) (A) (A) (A) (A)
                 (A) (A) (A) (A) (A) (A) (A) (A) (A) (A) (A) (A)
                 (A) (A) (A) (A) (A) (A) (A) (A) (A) (A) (A) (A)
                 (A) (A) (A) (A) (A) (A) (A) (A) (A) (A) (A) (A)
                 (A) (A) (A) (A) (A) (A) (A) (A) (A) (A) (A) (A)
                 (A) (A) (A) (A) (A) (A) (A) (A) (A) (A) (A) (A)
                 (A) (A) (A) (A) (A) (A) (A) (A) (A) (A) (A) (A)
                 (A) (A) (A) (A) (A) (A) (A) (A) (A) (A) (A) (A)
                 (A) (A) (A) (A) (A) (A) (A) (A) (A) (A) (A) (A)
                 (A) (A) (A) (A) (A) (A) (A) (A) (A) (A) (A) (A)
                 (A) (A) (A) (A) (A) (A) (A) (A) (A) (A) (A) (A)
                 (A) (A) (A) (A) (A) (A) (A) (A) (A) (A) (A) (A)
                 (A) (A) (A) (A) (A) (A) (A) (A) (A) (A) (A) (A)
                 (A) (A) (A) (A) (A) (A) (A) (A) (A) (A) (A) (A)
                 (A) (A) (A) (A) (A) (A) (A) (A) (A) (A) (A) (A)
                 (A) (A) (A) (A) (A) (A) (A) (A) (A) (A) (A) (A)
                 (A) (A) (A) (A) (A) (A) (A) (A) (A) (A) (A) (A)
                 (A) (A) (A) (A) (A) (A) (A) (A) (A) (A) (A) (A)
                 (A) (A) (A) (A) (A) (A) (A) (A) (A) (A) (A) (A)
                 (A) (A) (A)
       Virtual   (A) (A) (A) (A) (A) (A) (A) (A) (A) (A) (A) (A)
                 (A) (A) (A) (A) (A) (A) (A) (A) (A) (A) (A) (A)
                 (A) (A) (A) (A) (A) (A) (A) (A) (A) (A) (A) (A)
                 (A) (A) (A) (A) (A) (A) (A) (A) (A) (A) (A) (A)
                 (A) (A) (A) (A) (A) (A) (A) (A) (A) (A) (A) (A)
                 (A) (A) (A) (A) (A) (A) (A) (A) (A) (A) (A) (A)
                 (A) (A) (A) (A) (A) (A) (A) (A) (A) (A) (A) (A)
                 (A) (A) (A) (A) (A) (A) (A) (A) (A) (A) (A) (A)
                 (A) (A) (A) (A) (A) (A) (A) (A) (A) (A) (A) (A)
                 (A) (A) (A) (A) (A) (A) (A) (A) (A) (A) (A) (A)
                 (A) (A) (A) (A) (A) (A) (A) (A) (A) (A) (A) (A)
                 (A) (A) (A) (A) (A) (A) (A) (A) (A) (A) (A) (A)
                 (A) (A) (A) (A) (A) (A) (A) (A) (A) (A) (A) (A)
                 (A) (A) (A) (A) (A) (A) (A) (A) (A) (A) (A) (A)
                 (A) (A) (A) (A) (A) (A) (A) (A) (A) (A) (A) (A)
                 (A) (A) (A) (A) (A) (A) (A) (A) (A) (A) (A) (A)
                 (A) (A) (A) (A) (A) (A) (A) (A) (A) (A) (A) (A)
                 (A) (A) (A) (A) (A) (A) (A) (A) (A) (A) (A) (A)
                 (A) (A) (A) (A) (A) (A) (A) (A) (A) (A) (A) (A)
                 (A) (A) (A) (A) (A) (A) (A) (A) (A) (A) (A) (A)
                 (A) (A) (A) (A) (A) (A) (A) (A) (A) (A) (A) (A)
                 (A) (A) (A) (A) (A) (A) (A) (A) (A) (A) (A) (A)
                 (A) (A) (A) (A) (A) (A) (A) (A) (A) (A) (A) (A)
                 (A) (A) (A) (A) (A) (A) (A) (A) (A) (A) (A) (A)
                 (A) (A) (A) (A) (A) (A) (A) (A) (A) (A) (A) (A)
                 (A) (A) (A) (A) (A) (A) (A) (A) (A) (A) (A) (A)
                 (A) (A) (A) (A) (A) (A) (A) (A) (A) (A) (A) (A)
                 (A) (A) (A) (A) (A) (A) (A) (A) (A) (A) (A) (A)
                 (A) (A) (A) (A) (A) (A) (A) (A) (A) (A) (A) (A)
                 (A) (A) (A) (A) (A) (A) (A) (A) (A) (A) (A) (A)
                 (A) (A) (A) (A) (A) (A) (A) (A) (A) (A) (A) (A)
                 (A) (A) (A) (A) (A) (A) (A) (A) (A) (A) (A) (A)
                 (A) (A) (A) (A) (A) (A) (A) (A) (A) (A) (A) (A)
                 (A) (A) (A) (A) (A) (A) (A) (A) (A) (A) (A) (A)
                 (A) (A) (A) (A) (A) (A) (A) (A) (A) (A) (A) (A)
                 (A) (A) (A) (A) (A) (A) (A) (A) (A) (A) (A) (A)
                 (A) (A) (A) (A) (A) (A) (A) (A) (A) (A) (A) (A)
                 (A) (A) (A) (A) (A) (A) (A) (A) (A) (A) (A) (A)
                 (A) (A) (A) (A) (A) (A) (A) (A) (A) (A) (A) (A)
                 (A) (A) (A) (A) (A) (A) (A) (A) (A) (A) (A) (A)
                 (A) (A) (A) (A) (A) (A) (A) (A) (A) (A) (A) (A)
                 (A) (A) (A) (A) (A) (A) (A) (A) (A) (A) (A) (A)
                 (A) (A) (A) (A) (A) (A) (A) (A) (A) (A) (A) (A)
                 (A) (A) (A) (A) (A) (A) (A) (A) (A) (A) (A) (A)
                 (A) (A) (A) (A) (A) (A) (A) (A) (A) (A) (A) (A)
                 (A) (A) (A) (A) (A) (A) (A) (A) (A) (A) (A) (A)
                 (A) (A) (A) (A) (A) (A) (A) (A) (A) (A) (A) (A)
                 (A) (A) (A) (A) (A) (A) (A) (A) (A) (A) (A) (A)
                 (A) (A) (A) (A) (A) (A) (A) (A) (A) (A) (A) (A)
                 (A) (A) (A) (A) (A) (A) (A) (A) (A) (A) (A) (A)
                 (A) (A) (A) (A) (A) (A) (A) (A) (A) (A) (A) (A)
                 (A) (A) (A) (A) (A) (A) (A) (A) (A) (A) (A) (A)
                 (A) (A) (A) (A) (A) (A) (A) (A) (A) (A) (A) (A)
                 (A) (A) (A) (A) (A) (A) (A) (A) (A) (A) (A) (A)
                 (A) (A) (A) (A) (A) (A) (A) (A) (A) (A) (A) (A)
                 (A) (A) (A) (A) (A) (A) (A) (A) (A) (A) (A) (A)
                 (A) (A) (A) (A) (A) (A) (A) (A) (A) (A) (A) (A)
                 (A) (A) (A) (A) (A) (A) (A) (A) (A) (A) (A) (A)
                 (A) (A) (A) (A) (A) (A) (A) (A) (A) (A) (A) (A)
                 (A) (A) (A) (A) (A) (A) (A) (A) (A) (A) (A) (A)
                 (A) (A) (A) (A) (A) (A) (A) (A) (A) (A) (A) (A)
                 (A) (A) (A) (A) (A) (A) (A) (A) (A) (A) (A) (A)
                 (A) (A) (A) (A) (A) (A) (A) (A) (A) (A) (A) (A)
                 (A) (A) (A) (A) (A) (A) (A) (A) (A) (A) (A) (A)
                 (A) (A) (A) (A) (A) (A) (A) (A) (A) (A) (A) (A)
                 (A) (A) (A) (A) (A) (A) (A) (A) (A) (A) (A) (A)
                 (A) (A) (A) (A) (A) (A) (A) (A) (A) (A) (A) (A)
                 (A) (A) (A) (A) (A) (A) (A) (A) (A) (A) (A) (A)
                 (A) (A) (A) (A) (A) (A) (A) (A) (A) (A) (A) (A)
                 (A) (A) (A) (A) (A) (A) (A) (A) (A) (A) (A) (A)
                 (A) (A) (A) (A) (A) (A) (A) (A) (A) (A) (A) (A)
                 (A) (A) (A) (A) (A) (A) (A) (A) (A) (A) (A) (A)
                 (A) (A) (A) (A) (A) (A) (A) (A) (A) (A) (A) (A)
                 (A) (A) (A) (A) (A) (A) (A) (A) (A) (A) (A) (A)
                 (A) (A) (A) (A) (A) (A) (A) (A) (A) (A) (A) (A)
                 (A) (A) (A) (A) (A) (A) (A) (A) (A) (A) (A) (A)
                 (A) (A) (A) (A) (A) (A) (A) (A) (A) (A) (A) (A)
                 (A) (A) (A) (A) (A) (A) (A) (A) (A) (A) (A) (A)
                 (A) (A) (A) (A) (A) (A) (A) (A) (A) (A) (A) (A)
                 (A) (A) (A) (A) (A) (A) (A) (A) (A) (A) (A) (A)
                 (A) (A) (A) (A) (A) (A) (A) (A) (A) (A) (A) (A)
                 (A) (A) (A) (A) (A) (A) (A) (A) (A) (A) (A) (A)
                 (A) (A) (A) (A) (A) (A) (A) (A) (A) (A) (A) (A)
                 (A) (A) (A) (A) (A) (A) (A) (A) (A) (A) (A) (A)
                 (A) (A) (A) (A) (A) (A) (A) (A) (A) (A) (A) (A)
                 (A) (A) (A) (A) (A) (A) (A) (A) (A) (A) (A) (A)
                 (A) (A) (A) (A) (A) (A) (A)
   300 initial guesses have been made.
 Convergence on wavefunction:    0.001000000000000
 Iteration     1 Dimension   300 NMult     0 NNew    300
 CISAX will form   160 AO SS matrices at one time.
 Defaulting to unpruned grid for atomic number  46.
 Defaulting to unpruned grid for atomic number  46.
 Defaulting to unpruned grid for atomic number  46.
 Defaulting to unpruned grid for atomic number  46.
 Defaulting to unpruned grid for atomic number  46.
 Defaulting to unpruned grid for atomic number  46.
 Defaulting to unpruned grid for atomic number  46.
 Defaulting to unpruned grid for atomic number  46.
 Defaulting to unpruned grid for atomic number  46.
 Defaulting to unpruned grid for atomic number  46.
 Defaulting to unpruned grid for atomic number  46.
 Defaulting to unpruned grid for atomic number  46.
 Defaulting to unpruned grid for atomic number  46.
 Defaulting to unpruned grid for atomic number  46.
 Defaulting to unpruned grid for atomic number  46.
 Defaulting to unpruned grid for atomic number  46.
 New state      3 was old state     13
 New state      6 was old state      9
 New state      7 was old state     10
 New state      9 was old state      7
 New state     10 was old state     12
 New state     12 was old state      6
 New state     13 was old state     15
 New state     14 was old state     17
 New state     15 was old state     16
 New state     16 was old state     18
 New state     17 was old state     27
 New state     18 was old state     29
 New state     20 was old state     21
 New state     21 was old state     22
 New state     22 was old state     45
 New state     23 was old state     28
 New state     24 was old state     14
 New state     25 was old state     20
 New state     27 was old state     32
 New state     28 was old state     25
 New state     29 was old state     24
 New state     30 was old state     31
 New state     31 was old state     58
 New state     32 was old state     35
 New state     33 was old state     30
 New state     34 was old state    129
 New state     35 was old state     33
 New state     36 was old state     37
 New state     37 was old state     39
 New state     39 was old state     60
 New state     41 was old state     34
 New state     42 was old state     44
 New state     43 was old state     41
 New state     44 was old state     50
 New state     45 was old state     36
 New state     46 was old state     63
 New state     47 was old state     43
 New state     48 was old state     42
 New state     49 was old state     59
 New state     50 was old state     46
 New state     53 was old state     48
 New state     54 was old state     53
 New state     55 was old state     49
 New state     56 was old state     47
 New state     57 was old state     55
 New state     58 was old state     56
 New state     59 was old state     54
 New state     60 was old state     62
 New state     61 was old state     96
 New state     62 was old state     57
 New state     63 was old state     68
 New state     64 was old state     78
 New state     65 was old state     64
 New state     67 was old state     69
 New state     68 was old state     70
 New state     69 was old state     67
 New state     70 was old state     65
 New state     71 was old state     73
 New state     72 was old state     71
 New state     73 was old state     72
 New state     74 was old state    135
 New state     75 was old state     74
 Iteration     2 Dimension   450 NMult   300 NNew    150
 New state      3 was old state      4
 New state      4 was old state      3
 New state      5 was old state      8
 New state      6 was old state      5
 New state      7 was old state      6
 New state      8 was old state      7
 New state     10 was old state     12
 New state     12 was old state     10
 New state     13 was old state     16
 New state     14 was old state     13
 New state     15 was old state     14
 New state     16 was old state     15
 New state     19 was old state     30
 New state     20 was old state     24
 New state     21 was old state     22
 New state     22 was old state     23
 New state     23 was old state     19
 New state     24 was old state     26
 New state     25 was old state     20
 New state     26 was old state     21
 New state     28 was old state     25
 New state     29 was old state     31
 New state     30 was old state     33
 New state     31 was old state     28
 New state     32 was old state     29
 New state     33 was old state     32
 New state     35 was old state     39
 New state     36 was old state     40
 New state     37 was old state     36
 New state     38 was old state     35
 New state     39 was old state     44
 New state     40 was old state     37
 New state     41 was old state     38
 New state     43 was old state     41
 New state     44 was old state     43
 New state     45 was old state     49
 New state     46 was old state     45
 New state     47 was old state     46
 New state     48 was old state     47
 New state     49 was old state     48
 New state     50 was old state     53
 New state     51 was old state     50
 New state     52 was old state     51
 New state     53 was old state     64
 New state     54 was old state     52
 New state     55 was old state     60
 New state     56 was old state     54
 New state     58 was old state     56
 New state     59 was old state     55
 New state     60 was old state     61
 New state     61 was old state     58
 New state     62 was old state     59
 New state     64 was old state     65
 New state     65 was old state     66
 New state     66 was old state     62
 New state     67 was old state     81
 New state     68 was old state     74
 New state     69 was old state     68
 New state     70 was old state     67
 New state     71 was old state     69
 New state     72 was old state     73
 New state     73 was old state     70
 New state     74 was old state     71
 New state     75 was old state     72
 Iteration     3 Dimension   600 NMult   450 NNew    150
 New state     59 was old state     60
 New state     60 was old state     59
 New state     62 was old state     63
 New state     63 was old state     62
 Iteration     4 Dimension   748 NMult   600 NNew    148
 Iteration     5 Dimension   850 NMult   748 NNew    102
 Iteration     6 Dimension   872 NMult   850 NNew     22
 Iteration     7 Dimension   876 NMult   872 NNew      4
 ***********************************************************************
 Excited states from <AA,BB:AA,BB> singles matrix:
 ***********************************************************************
 
 Ground to excited state transition densities written to RWF  633
 Ground to excited state transition electric dipole moments (Au):
       state          X           Y           Z        Dip. S.      Osc.
         1        -2.0515      0.0102     -0.0029      4.2086      0.1975
         2        -0.0024      0.7230      0.0328      0.5238      0.0282
         3         0.0357     -0.0186      0.0026      0.0016      0.0001
         4        -0.0099      0.1546      0.0045      0.0240      0.0015
         5        -0.0148     -2.0468     -0.0939      4.1985      0.2736
         6         0.0053      0.0271     -0.0442      0.0027      0.0002
         7         0.0226      0.0725     -0.0053      0.0058      0.0004
         8        -0.0366      0.1648     -0.0114      0.0286      0.0020
         9        -0.1681     -0.0339      0.0520      0.0321      0.0023
        10         2.2081      0.0003      0.0135      4.8759      0.3463
        11         0.0025     -0.2313      0.0403      0.0551      0.0040
        12         0.0671     -0.1930     -0.0086      0.0418      0.0031
        13         0.0154      2.4720      0.1038      6.1220      0.4520
        14        -0.2654      0.0950     -0.0138      0.0796      0.0060
        15        -0.0198     -0.7797     -0.1069      0.6197      0.0471
        16        -0.3878      0.0177     -0.0011      0.1507      0.0116
        17        -0.0277     -1.1811      0.0276      1.3966      0.1096
        18        -0.1651      0.2092     -0.0068      0.0711      0.0056
        19        -0.0047      1.6134     -0.0364      2.6044      0.2049
        20        -0.0104     -0.1010      0.1281      0.0267      0.0021
        21         0.1195      0.3320     -0.0111      0.1246      0.0101
        22         0.0327     -0.9623      0.0359      0.9284      0.0754
        23        -0.0995     -0.1698     -0.0100      0.0389      0.0032
        24         0.5414      0.0200      0.0086      0.2936      0.0241
        25        -0.1294      0.0096     -0.0006      0.0168      0.0014
        26        -0.1831      0.0908     -0.0066      0.0418      0.0035
        27        -0.3617     -0.0047     -0.0024      0.1309      0.0109
        28        -0.0019      0.0026     -0.0034      0.0000      0.0000
        29        -0.0039     -0.1538     -0.0437      0.0256      0.0022
        30        -0.0028      0.1839      0.0378      0.0353      0.0030
        31         0.0417     -0.0253     -0.0105      0.0025      0.0002
        32         0.0027     -0.0268     -0.0070      0.0008      0.0001
        33        -0.1747      0.0057     -0.0067      0.0306      0.0027
        34         0.5021     -0.0018     -0.0046      0.2521      0.0221
        35         0.0613     -0.0678      0.0365      0.0097      0.0009
        36        -0.1530     -0.0030     -0.0010      0.0234      0.0021
        37        -0.6328     -0.0025      0.0023      0.4005      0.0361
        38         0.0664      0.0315     -0.0328      0.0065      0.0006
        39         0.4613      0.0015     -0.0033      0.2128      0.0194
        40         0.0071      0.0372      0.0006      0.0014      0.0001
        41         0.0109      0.0617     -0.0005      0.0039      0.0004
        42        -0.7441      0.0016     -0.0091      0.5537      0.0511
        43        -0.0103      0.2677     -0.0183      0.0721      0.0067
        44        -0.0161     -0.0731      0.0732      0.0110      0.0010
        45        -0.2763      0.0132     -0.0077      0.0766      0.0072
        46         0.0156      0.1126     -0.0319      0.0139      0.0013
        47         0.0019     -0.3970     -0.0252      0.1582      0.0149
        48         0.0044     -0.1056      0.0001      0.0112      0.0011
        49        -0.0031     -0.4075      0.0410      0.1678      0.0160
        50        -0.0001     -1.6858     -0.0275      2.8425      0.2756
        51        -0.8606      0.0219     -0.0130      0.7414      0.0725
        52        -0.3700     -0.0630      0.0045      0.1409      0.0138
        53        -0.2593      0.0580     -0.0009      0.0706      0.0069
        54        -0.2213     -0.0178     -0.0056      0.0493      0.0049
        55         0.0686      0.0367     -0.0013      0.0061      0.0006
        56        -0.0021     -0.0164     -0.0001      0.0003      0.0000
        57        -0.0091     -0.2004      0.0366      0.0416      0.0042
        58         0.0616     -0.0293      0.0008      0.0047      0.0005
        59        -0.0528      0.2753      0.0007      0.0786      0.0079
        60        -0.2387     -0.0705     -0.0067      0.0620      0.0062
        61         0.0446     -0.1649      0.0536      0.0321      0.0032
        62         0.0201      0.1942      0.0287      0.0389      0.0040
        63         0.0810      0.0035     -0.0029      0.0066      0.0007
        64        -0.0070     -1.4759     -0.0193      2.1786      0.2233
        65         0.3882      0.0138     -0.0020      0.1509      0.0156
        66         0.0011     -0.7196      0.0819      0.5245      0.0544
        67         0.0419      0.0796      0.0197      0.0085      0.0009
        68        -0.0433      0.1045      0.0213      0.0132      0.0014
        69         0.0041     -0.0521     -0.0081      0.0028      0.0003
        70        -0.0045     -0.2177     -0.0487      0.0498      0.0053
        71        -0.0839      0.0220      0.0101      0.0076      0.0008
        72        -0.1360      0.0114      0.0023      0.0186      0.0020
        73         0.0853     -0.0189      0.0228      0.0082      0.0009
        74         0.0396      0.0398      0.0125      0.0033      0.0004
        75        -0.0461     -0.0201      0.0619      0.0064      0.0007
 Ground to excited state transition velocity dipole moments (Au):
       state          X           Y           Z        Dip. S.      Osc.
         1         0.1393     -0.0007      0.0002      0.0194      0.1837
         2         0.0001     -0.0565     -0.0019      0.0032      0.0264
         3        -0.0036      0.0017     -0.0003      0.0000      0.0001
         4         0.0015     -0.0140     -0.0004      0.0002      0.0014
         5         0.0013      0.1896      0.0088      0.0360      0.2458
         6         0.0001     -0.0041      0.0046      0.0000      0.0002
         7        -0.0021     -0.0073     -0.0059      0.0001      0.0006
         8         0.0028     -0.0168      0.0006      0.0003      0.0019
         9         0.0173      0.0038     -0.0065      0.0004      0.0022
        10        -0.2283      0.0001     -0.0007      0.0521      0.3261
        11        -0.0001      0.0241     -0.0038      0.0006      0.0036
        12        -0.0067      0.0203      0.0009      0.0005      0.0028
        13        -0.0017     -0.2609     -0.0105      0.0682      0.4103
        14         0.0349     -0.0101      0.0018      0.0013      0.0078
        15         0.0026      0.0826      0.0114      0.0070      0.0407
        16         0.0358     -0.0019      0.0001      0.0013      0.0074
        17         0.0030      0.1353     -0.0013      0.0183      0.1037
        18         0.0190     -0.0239      0.0009      0.0009      0.0053
        19         0.0007     -0.1850      0.0044      0.0342      0.1934
        20         0.0011      0.0083     -0.0159      0.0003      0.0018
        21        -0.0139     -0.0396      0.0021      0.0018      0.0096
        22        -0.0039      0.1152     -0.0057      0.0133      0.0729
        23         0.0127      0.0206      0.0028      0.0006      0.0032
        24        -0.0602     -0.0025     -0.0008      0.0036      0.0197
        25         0.0157     -0.0011     -0.0007      0.0002      0.0013
        26         0.0215     -0.0114      0.0081      0.0007      0.0035
        27         0.0451      0.0005      0.0004      0.0020      0.0108
        28         0.0002     -0.0004      0.0007      0.0000      0.0000
        29         0.0005      0.0195      0.0059      0.0004      0.0022
        30         0.0004     -0.0213     -0.0070      0.0005      0.0026
        31        -0.0055      0.0027      0.0010      0.0000      0.0002
        32         0.0001      0.0029     -0.0001      0.0000      0.0000
        33         0.0233     -0.0007      0.0013      0.0005      0.0028
        34        -0.0644      0.0002      0.0010      0.0042      0.0211
        35        -0.0076      0.0030     -0.0039      0.0001      0.0004
        36         0.0167     -0.0001      0.0000      0.0003      0.0014
        37         0.0807     -0.0002     -0.0005      0.0065      0.0321
        38        -0.0085     -0.0044      0.0033      0.0001      0.0005
        39        -0.0672     -0.0002      0.0004      0.0045      0.0220
        40        -0.0018     -0.0051     -0.0007      0.0000      0.0001
        41        -0.0017     -0.0083      0.0042      0.0001      0.0004
        42         0.0992     -0.0002      0.0014      0.0098      0.0474
        43         0.0021     -0.0368      0.0029      0.0014      0.0065
        44         0.0024      0.0107     -0.0094      0.0002      0.0010
        45         0.0379     -0.0018      0.0013      0.0014      0.0068
        46        -0.0022     -0.0156      0.0092      0.0003      0.0016
        47        -0.0001      0.0552      0.0032      0.0031      0.0144
        48        -0.0002      0.0148     -0.0001      0.0002      0.0010
        49         0.0003      0.0572     -0.0056      0.0033      0.0154
        50         0.0001      0.2403      0.0032      0.0578      0.2647
        51         0.1194     -0.0030      0.0032      0.0143      0.0650
        52         0.0510      0.0091     -0.0050      0.0027      0.0123
        53         0.0365     -0.0083     -0.0010      0.0014      0.0064
        54         0.0297      0.0021      0.0052      0.0009      0.0041
        55        -0.0090     -0.0071     -0.0011      0.0001      0.0006
        56         0.0045      0.0025      0.0012      0.0000      0.0001
        57         0.0012      0.0306     -0.0045      0.0010      0.0042
        58        -0.0092      0.0045      0.0003      0.0001      0.0005
        59         0.0080     -0.0418     -0.0007      0.0018      0.0080
        60         0.0361      0.0107      0.0013      0.0014      0.0063
        61        -0.0065      0.0243     -0.0094      0.0007      0.0032
        62        -0.0030     -0.0277      0.0010      0.0008      0.0034
        63        -0.0121     -0.0005      0.0007      0.0001      0.0006
        64         0.0010      0.2227     -0.0006      0.0496      0.2151
        65        -0.0594     -0.0021      0.0006      0.0035      0.0152
        66        -0.0002      0.1124     -0.0118      0.0128      0.0547
        67        -0.0069     -0.0108     -0.0029      0.0002      0.0007
        68         0.0069     -0.0146     -0.0031      0.0003      0.0011
        69        -0.0006      0.0111      0.0013      0.0001      0.0005
        70         0.0005      0.0341      0.0056      0.0012      0.0050
        71         0.0143     -0.0043     -0.0014      0.0002      0.0009
        72         0.0146     -0.0019     -0.0004      0.0002      0.0009
        73        -0.0138      0.0012     -0.0042      0.0002      0.0009
        74        -0.0064     -0.0036     -0.0024      0.0001      0.0002
        75         0.0070      0.0029     -0.0123      0.0002      0.0009
 Ground to excited state transition magnetic dipole moments (Au):
       state          X           Y           Z
         1         0.0020     -0.0373     -1.9441
         2        -0.0485     -0.0036     -0.0124
         3         0.0051      0.0250     -0.7066
         4         0.0001      0.0847     -0.1030
         5         0.0432     -0.0306     -0.0212
         6         0.0168      0.1007      0.0465
         7        -0.0823      0.0115     -0.0023
         8        -0.0018     -0.0657     -0.0447
         9        -0.0281     -0.0270     -0.0358
        10         0.0038      0.3382      0.3634
        11        -0.0325      0.0013      0.0047
        12        -0.0008     -0.0041      0.0782
        13         0.0928     -0.0047      0.0092
        14         0.1015     -0.0168     -0.3126
        15        -0.0067     -0.0054     -0.0211
        16         0.0038     -0.0394     -0.1009
        17        -0.0556     -0.0060     -0.0155
        18        -0.0191     -0.0567     -0.1956
        19        -0.1331      0.0107      0.0012
        20         0.1429     -0.0059     -0.0140
        21        -0.0131     -0.3200     -0.7784
        22         0.0648     -0.1050     -0.2353
        23         0.1012      0.0625     -0.3719
        24        -0.0178      0.3429     -1.0963
        25         0.0064      0.0353      0.1336
        26         0.0019     -0.0490      0.0147
        27         0.0039     -0.0972     -0.6371
        28         0.0038     -0.0260      0.0344
        29         0.1990     -0.0009      0.0126
        30         0.4452     -0.0011      0.0162
        31        -0.0110      0.0816      0.0965
        32        -0.0221     -0.0509     -0.0610
        33         0.0136      0.1765     -0.0643
        34         0.0012      0.1375      0.6708
        35         0.0070     -0.0291      0.0221
        36         0.0027      0.0808     -0.1897
        37        -0.0025      0.1320     -0.0117
        38        -0.0023     -0.0187      0.0082
        39        -0.0022     -0.0729      0.2763
        40        -0.0248     -0.0621     -0.0489
        41         0.0209     -0.0115     -0.0098
        42         0.0028      0.0903      0.3915
        43        -0.1348      0.0129      0.0187
        44         0.2330      0.0016      0.0355
        45        -0.0151     -0.0348      0.7909
        46        -0.0884      0.0026     -0.0248
        47         0.1513     -0.0008     -0.0002
        48         0.0174     -0.0104     -0.0443
        49         0.1215     -0.0019      0.0111
        50         0.1996     -0.0012     -0.0042
        51         0.0009     -0.1950     -0.6440
        52         0.0126     -0.0933     -0.1608
        53        -0.0022      0.0390     -0.1459
        54        -0.0770     -0.0332      0.1222
        55        -0.3163      0.0170     -0.0538
        56         0.0227     -0.0041     -0.1451
        57         0.0974     -0.0032      0.0179
        58         0.0178     -0.0281     -0.0844
        59        -0.0394     -0.0155     -0.0345
        60         0.0534     -0.0326     -0.1910
        61         0.0240      0.0108     -0.0398
        62         0.2844      0.0028      0.0167
        63        -0.0021      0.0349     -0.0837
        64         0.3838     -0.0018     -0.0112
        65        -0.0034      0.1072     -0.3212
        66         0.5265     -0.0056      0.0059
        67         0.1120     -0.2972      0.4932
        68         0.1219      0.3132     -0.5133
        69         0.0189     -0.0548      0.0547
        70        -0.0451     -0.0068      0.0033
        71         0.0031     -0.1274     -0.0938
        72        -0.0008     -0.0026      0.0941
        73         0.0013     -0.0237      0.1361
        74        -0.0261      0.0032      0.0276
        75        -0.0524      0.0017     -0.0201
 Ground to excited state transition velocity quadrupole moments (Au):
       state          XX          YY          ZZ          XY          XZ          YZ
         1        -0.0016     -0.0044      0.0011     -0.6005      0.0477     -0.0026
         2        -0.2762      0.7689     -0.0178     -0.0012     -0.0051     -0.0183
         3        -0.0040      0.0030      0.0001     -0.5030     -0.0440      0.0006
         4         0.0102      0.0064     -0.0006     -0.0651     -0.0292      0.0114
         5        -0.0128     -0.3185     -0.0036     -0.0063     -0.0001     -0.1481
         6         0.1721     -0.4250     -0.0107      0.0130     -0.0180     -0.0028
         7         0.0769     -0.0518     -0.0097      0.0002     -0.0060      0.0109
         8         0.0886     -0.1356     -0.0028     -0.0220      0.0638      0.0101
         9        -0.0263      0.0093      0.0050     -0.0390      0.0037     -0.0646
        10         0.0112     -0.0182     -0.0013      0.6054     -0.0597     -0.0040
        11        -0.1124      0.0269     -0.0170     -0.0020      0.0077      0.0202
        12        -0.0271      0.0351      0.0032      0.0003      0.0679     -0.0179
        13         0.2256     -0.0614      0.0051     -0.0025      0.0063      0.1912
        14        -0.0291      0.0276     -0.0031     -0.0579      0.0038      0.0499
        15         0.2812     -0.3263     -0.0048      0.0007     -0.0003     -0.1068
        16        -0.0006      0.0029     -0.0001     -0.0807      0.0340      0.0023
        17        -0.4659     -0.0838     -0.0190     -0.0163     -0.0034     -0.0563
        18         0.0778      0.0215      0.0002     -0.0342      0.0324      0.0113
        19         0.5992      0.1682      0.0074     -0.0225      0.0000      0.0957
        20        -0.3898     -0.4156      0.0574     -0.0130     -0.0004      0.1118
        21         0.0662     -0.0342     -0.0030     -0.1211     -0.0144      0.0028
        22        -0.1720      0.1481      0.0043     -0.0353     -0.0054     -0.0013
        23         0.0042     -0.0451     -0.0132     -0.2561      0.0054      0.0395
        24        -0.0071      0.0071      0.0042      0.0385     -0.0104     -0.0133
        25         0.0093      0.0019     -0.0011     -0.0793     -0.0644      0.0012
        26         0.0022      0.0008      0.0054     -0.2351     -0.0077      0.0416
        27         0.0014      0.0084      0.0000      0.0434      0.0298      0.0010
        28         0.0084     -0.0209     -0.0028      0.2525      0.0096      0.0042
        29         0.1068      0.5028     -0.0241     -0.0014      0.0000     -0.0603
        30        -0.0967     -0.3278      0.0143      0.0098     -0.0003      0.0267
        31        -0.0053      0.0895     -0.0037      0.5341      0.0104     -0.0009
        32        -0.0006      0.0867     -0.0056     -0.3461     -0.0071     -0.0105
        33         0.0026     -0.0129     -0.0003      0.8170      0.0261      0.0100
        34         0.0057     -0.0038     -0.0008      1.1852     -0.0029      0.0069
        35        -0.2295      0.3367      0.0235      0.0521     -0.0024     -0.0089
        36        -0.0121      0.0379      0.0030      0.3747      0.0139     -0.0017
        37        -0.0016      0.0341      0.0064     -1.0384     -0.0187     -0.0042
        38         0.2395      0.0748      0.0382      0.1033      0.0040     -0.0013
        39         0.0038     -0.0111     -0.0004      1.3113      0.0633     -0.0016
        40        -0.0106      0.1819     -0.0013      0.0137      0.0434     -0.0054
        41        -0.0078      0.0386      0.0068      0.0214      0.0096     -0.0034
        42         0.0078     -0.0191     -0.0001      0.5383      0.0329      0.0033
        43         0.0171      0.5061     -0.0067     -0.0301     -0.0295     -0.0414
        44        -0.1593      0.1169      0.0153      0.0050     -0.0045      0.1162
        45         0.0117     -0.0031     -0.0012      0.2668      0.0986     -0.0046
        46         0.0556     -0.0845     -0.0059     -0.0187     -0.0039     -0.0118
        47         0.0146     -0.4594     -0.0008     -0.0075     -0.0006      0.0450
        48         0.0130     -0.1830      0.0011     -0.0609      0.0201     -0.0062
        49         0.0124     -0.4865      0.0060      0.0101     -0.0008     -0.0539
        50        -0.0537     -1.8113      0.0145      0.0086     -0.0005     -0.0685
        51         0.0067      0.0213      0.0062      1.2861      0.1693     -0.0051
        52        -0.0160     -0.0566     -0.0129      0.4934      0.0783      0.0069
        53         0.0085      0.0366     -0.0025      0.4316     -0.0321      0.0026
        54        -0.0619      0.3016     -0.0075      0.2284      0.0256      0.0037
        55        -0.3178      1.1450     -0.0313     -0.0690     -0.0101     -0.0748
        56         0.0194     -0.0611      0.0005     -0.0051     -0.0211      0.0129
        57        -0.3504     -0.3239     -0.0220      0.0068     -0.0030      0.0070
        58         0.0024     -0.0536     -0.0017      0.0065      0.0600      0.0068
        59        -0.1199      0.1621     -0.0045      0.0553      0.0051     -0.0065
        60         0.0310     -0.0834     -0.0008      0.2419      0.0260      0.0189
        61        -0.0215     -0.1661     -0.0099     -0.0295     -0.0037      0.0077
        62         0.1051      0.0120     -0.0052     -0.0203     -0.0025      0.0182
        63        -0.0026      0.0170      0.0027     -0.0175      0.0338      0.0018
        64        -0.0811     -2.1097     -0.0020     -0.0059      0.0033     -0.0346
        65        -0.0006      0.0314     -0.0010     -0.2113     -0.0737      0.0074
        66        -0.1218     -2.3139      0.0209     -0.0096      0.0052      0.1487
        67        -0.0790     -0.5930      0.0292      0.0947     -0.0128      0.0484
        68        -0.0691     -0.5749      0.0334     -0.1025      0.0119      0.0525
        69         0.2254      0.1519      0.0381     -0.0163      0.0226     -0.0303
        70         0.3232     -0.1143      0.0277     -0.0129      0.0056     -0.0478
        71        -0.1237     -0.0280     -0.0054     -0.1227      0.0675      0.0122
        72        -0.0220      0.0155     -0.0005     -0.1921      0.0234      0.0022
        73        -0.1545     -0.0456      0.0034      0.0535      0.0394     -0.0212
        74        -0.0792     -0.1091     -0.0155      0.0050      0.0096      0.0116
        75        -0.0549     -0.1238      0.0071     -0.0286     -0.0097     -0.1060
 <0|del|b> * <b|rxdel|0> + <0|del|b> * <b|delr+rdel|0>
 Rotatory Strengths (R) in cgs (10**-40 erg-esu-cm/Gauss)
       state          XX          YY          ZZ    R(velocity)    E-M Angle
         1        -1.7768     -1.4730      3.1994     -0.0168       90.00
         2        -0.2432      0.0577      2.1325      0.6490       85.50
         3         1.8321      0.1561     -0.1842      0.6013       85.14
         4        -5.6392      0.1226     -2.9369     -2.8178      127.45
         5       -21.8220     -0.9567    -20.1776    -14.3188      123.24
         6        -0.7570      0.5367     -1.1804     -0.4669      106.95
         7        -0.3950      0.5713      0.5453      0.2405       82.42
         8         7.2473      0.0290     -0.0022      2.4247       37.75
         9         1.2255     -5.3843      1.8002     -0.7862      110.87
        10        -2.0894      0.6772     -5.8393     -2.4172       90.55
        11        -0.5374     -0.0787      0.7187      0.0342       90.00
        12        -4.4952      0.6279      3.8118     -0.0185       90.00
        13         8.9835     -1.9391     -0.7760      2.0895       87.69
        14        -1.3866     15.0535      6.0094      6.5588       74.69
        15        -2.0352     -1.6910     -0.6362     -1.4541      111.67
        16         0.3769      0.6627      0.1929      0.4108       87.02
        17        -0.9079     -1.0166     -3.7968     -1.9071       96.96
        18         5.7947     -0.8615      0.0104      1.6479       82.42
        19        -6.1780      0.2351     -6.4278     -4.1236       94.79
        20         1.1426      0.9155     -0.0481      0.6700       82.50
        21        29.6905     -3.5439     39.0579     21.7348       71.47
        22       -28.8571      2.5807    -37.6698    -21.3154      111.05
        23        -1.6389      4.2287      6.3063      2.9654       80.69
        24        -0.0181      8.1080     -1.6325      2.1525       89.07
        25        -0.4164     -0.0864      0.3208     -0.0607       90.00
        26        -3.7060      8.3883     -0.5869      1.3651       56.75
        27        -0.8697     -0.1579      0.2708     -0.2523       90.26
        28         0.6346     -0.4471      0.0179      0.0685       90.00
        29         0.1312      0.4120      0.2945      0.2793       87.87
        30        -0.4535      0.3611      0.5073      0.1383       90.00
        31         2.3227     -1.0606      0.8446      0.7022       60.90
        32        -0.2447     -0.0800     -0.4666     -0.2638      126.73
        33         2.4210     -1.6911     -0.1796      0.1835       88.68
        34         5.2153     -2.8496      1.0453      1.1370       89.18
        35        -0.9749      0.3463     -0.5653     -0.3980      132.63
        36        -0.0058      0.0191      0.1739      0.0624       90.00
        37         1.3261     -2.7999      0.3069     -0.3890       91.20
        38         1.2255     -0.7420      0.1931      0.2255       51.67
        39         1.8777     -0.5345      0.1011      0.4814       89.17
        40         1.4532      0.2573      0.3388      0.6831       28.74
        41         0.5727     -0.4098     -0.0671      0.0319       90.00
        42         3.3558      1.0314     -0.1747      1.4042       88.82
        43        -4.0368     -0.5775      1.0585     -1.1853       97.98
        44        -0.7912      1.3815      0.6250      0.4051       85.94
        45         4.0832     -0.1568     -1.2901      0.8788       89.00
        46        -1.2563      0.4113      0.4746     -0.1235       90.00
        47        -0.0789      0.0019     -0.2261     -0.1010       90.00
        48        -1.1051     -0.0083      0.3419     -0.2572      102.49
        49        -0.4562      0.0307     -0.2701     -0.2319       91.15
        50        -0.3590     -0.0794     -0.9161     -0.4515       90.33
        51         7.5607    -15.9004      1.8969     -2.1476       90.95
        52        -7.7323     10.2596      0.3746      0.9673       86.44
        53        -2.0877      1.3753     -0.5636     -0.4253       92.69
        54         4.0475     -6.5049     -5.7446     -2.7340      112.61
        55        -0.1306      8.3508      5.0667      4.4290       40.88
        56        -0.3177     -0.0081     -0.0432     -0.1230       90.00
        57        -0.2805      0.1734     -0.1913     -0.0995       90.00
        58        -0.9739     -0.5890      0.0972     -0.4886      109.70
        59         1.9894     -0.7095      0.3997      0.5599       81.14
        60        -1.3148      4.7639      2.7558      2.0683       79.94
        61         2.3356     -0.2560      0.1550      0.7449       67.98
        62        -0.3494     -2.0200     -1.8702     -1.4132       96.59
        63        -0.1569     -0.0944      0.0270     -0.0748       90.00
        64        -2.5474      0.8470      1.7839      0.0278       90.00
        65        -1.6667     -0.7108      1.2972     -0.3601       90.68
        66        -2.6628     -0.6678     -0.2457     -1.1921       90.76
        67         3.1593     -5.0961      6.6029      1.5554       82.33
        68        -5.6562      5.5823     -9.6234     -3.2324      102.29
        69        -1.8162      0.2254     -0.8702     -0.8203      127.87
        70        -1.0638      0.0948     -0.0859     -0.3516       98.64
        71         2.5534      0.3984      0.2885      1.0801       72.17
        72         0.1874     -0.1845     -0.1845     -0.0605       90.00
        73        -1.9231     -0.1560     -0.6429     -0.9073      107.99
        74        -0.1258      0.0832      0.4339      0.1304       90.00
        75         1.3970     -2.6928      0.7835     -0.1708       98.21
 1/2[<0|r|b>*<b|rxdel|0> + (<0|rxdel|b>*<b|r|0>)*]
 Rotatory Strengths (R) in cgs (10**-40 erg-esu-cm/Gauss)
       state          XX          YY          ZZ     R(length)
         1         2.9668      0.2683     -3.9894     -0.2515
         2        -0.0822      1.8521      0.2883      0.6860
         3        -0.1298      0.3285      1.3155      0.5047
         4         0.0007     -9.2555      0.3257     -2.9764
         5         0.4531    -44.3148     -1.4065    -15.0894
         6        -0.0629     -1.9264      1.4537     -0.1786
         7         1.3123     -0.5907     -0.0086      0.2377
         8        -0.0472      7.6548     -0.3611      2.4155
         9        -3.3443     -0.6480      1.3184     -0.8913
        10        -5.9477     -0.0667     -3.4758     -3.1634
        11         0.0579      0.2077     -0.1347      0.0436
        12         0.0382     -0.5638      0.4731     -0.0175
        13        -1.0133      8.2862     -0.6731      2.1999
        14        19.0475      1.1308     -3.0528      5.7085
        15        -0.0932     -2.9720     -1.5985     -1.5545
        16         1.0407      0.4930     -0.0818      0.4840
        17        -1.0883     -4.9725      0.3026     -1.9194
        18        -2.2303      8.3820     -0.9457      1.7353
        19        -0.4449    -12.1856      0.0318     -4.1996
        20         1.0481     -0.4219      1.2654      0.6305
        21         1.1094     75.1363     -6.1283     23.3724
        22        -1.5001    -71.4846      5.9705    -22.3381
        23         7.1239      7.5089     -2.6409      3.9973
        24         6.8080     -4.8377      6.6397      2.8700
        25         0.5855     -0.2386      0.0530      0.1333
        26         0.2507      3.1455      0.0690      1.1551
        27         1.0034     -0.3253     -1.0797     -0.1339
        28         0.0051      0.0481      0.0831      0.0455
        29         0.5482     -0.0995      0.3900      0.2796
        30         0.8690      0.1375     -0.4337      0.1909
        31         0.3238      1.4595      0.7195      0.8342
        32         0.0426     -0.9644     -0.3013     -0.4077
        33         1.6769     -0.7176     -0.3034      0.2187
        34        -0.4415      0.1759      2.1749      0.6364
        35        -0.3053     -1.3932     -0.5712     -0.7566
        36         0.2947      0.1711     -0.1356      0.1101
        37        -1.1248      0.2358      0.0194     -0.2899
        38         0.1094      0.4168      0.1894      0.2385
        39         0.7015      0.0797      0.6378      0.4730
        40         0.1248      1.6368      0.0221      0.5946
        41        -0.1604      0.5004     -0.0038      0.1121
        42         1.4986     -0.1023      2.5086      1.3016
        43        -0.9845     -2.4370      0.2413     -1.0601
        44         2.6585      0.0845     -1.8356      0.3025
        45        -2.9481      0.3258      4.2892      0.5557
        46         0.9754     -0.2086     -0.5595      0.0691
        47        -0.2060     -0.2152     -0.0044     -0.1418
        48        -0.0544     -0.7799      0.0017     -0.2775
        49         0.2623     -0.5600     -0.3217     -0.2064
        50         0.0134     -1.3810     -0.0809     -0.4828
        51         0.5333      3.0229     -5.9317     -0.7918
        52         3.3088     -4.1585      0.5066     -0.1144
        53        -0.4078     -1.6020     -0.0956     -0.7018
        54       -12.0544     -0.4190      0.4843     -3.9964
        55        15.3366     -0.4412     -0.0492      4.9487
        56         0.0341     -0.0477     -0.0082     -0.0073
        57         0.6273     -0.4562     -0.4620     -0.0970
        58        -0.7767     -0.5823      0.0499     -0.4364
        59        -1.4737      3.0210      0.0160      0.5211
        60         9.0152     -1.6246     -0.9051      2.1618
        61        -0.7565      1.2589      1.5076      0.6700
        62        -4.0435     -0.3809     -0.3389     -1.5877
        63         0.1189     -0.0868     -0.1700     -0.0459
        64         1.8939     -1.8270     -0.1522     -0.0285
        65         0.9261     -1.0458     -0.4582     -0.1926
        66        -0.4123     -2.8571     -0.3395     -1.2030
        67        -3.3183     16.7271     -6.8630      2.1819
        68         3.7275    -23.1371      7.7424     -3.8891
        69        -0.0549     -2.0185      0.3130     -0.5868
        70        -0.1433     -1.0490      0.1129     -0.3598
        71         0.1867      1.9778      0.6676      0.9440
        72        -0.0807      0.0209     -0.1531     -0.0710
        73        -0.0777     -0.3169     -2.1951     -0.8632
        74         0.7296     -0.0889     -0.2432      0.1325
        75        -1.7064      0.0246      0.8800     -0.2673
  1/2[<0|del|b>*<b|r|0> + (<0|r|b>*<b|del|0>)*] (Au)
       state          X           Y           Z        Dip. S.   Osc.(frdel)
         1        -0.2858      0.0000      0.0000      0.2858      0.1905
         2         0.0000     -0.0409     -0.0001      0.0409      0.0273
         3        -0.0001      0.0000      0.0000      0.0002      0.0001
         4         0.0000     -0.0022      0.0000      0.0022      0.0015
         5         0.0000     -0.3881     -0.0008      0.3890      0.2593
         6         0.0000     -0.0001     -0.0002      0.0003      0.0002
         7         0.0000     -0.0005      0.0000      0.0005      0.0004
         8        -0.0001     -0.0028      0.0000      0.0029      0.0019
         9        -0.0029     -0.0001     -0.0003      0.0034      0.0022
        10        -0.5040      0.0000      0.0000      0.5041      0.3360
        11         0.0000     -0.0056     -0.0002      0.0057      0.0038
        12        -0.0005     -0.0039      0.0000      0.0044      0.0029
        13         0.0000     -0.6449     -0.0011      0.6460      0.4307
        14        -0.0093     -0.0010      0.0000      0.0102      0.0068
        15        -0.0001     -0.0644     -0.0012      0.0657      0.0438
        16        -0.0139      0.0000      0.0000      0.0139      0.0093
        17        -0.0001     -0.1598      0.0000      0.1599      0.1066
        18        -0.0031     -0.0050      0.0000      0.0081      0.0054
        19         0.0000     -0.2984     -0.0002      0.2986      0.1991
        20         0.0000     -0.0008     -0.0020      0.0029      0.0019
        21        -0.0017     -0.0131      0.0000      0.0148      0.0099
        22        -0.0001     -0.1108     -0.0002      0.1112      0.0741
        23        -0.0013     -0.0035      0.0000      0.0048      0.0032
        24        -0.0326     -0.0001      0.0000      0.0326      0.0218
        25        -0.0020      0.0000      0.0000      0.0020      0.0014
        26        -0.0039     -0.0010     -0.0001      0.0050      0.0034
        27        -0.0163      0.0000      0.0000      0.0163      0.0109
        28         0.0000      0.0000      0.0000      0.0000      0.0000
        29         0.0000     -0.0030     -0.0003      0.0033      0.0022
        30         0.0000     -0.0039     -0.0003      0.0042      0.0028
        31        -0.0002     -0.0001      0.0000      0.0003      0.0002
        32         0.0000     -0.0001      0.0000      0.0001      0.0001
        33        -0.0041      0.0000      0.0000      0.0041      0.0027
        34        -0.0324      0.0000      0.0000      0.0324      0.0216
        35        -0.0005     -0.0002     -0.0001      0.0008      0.0005
        36        -0.0026      0.0000      0.0000      0.0026      0.0017
        37        -0.0511      0.0000      0.0000      0.0511      0.0340
        38        -0.0006     -0.0001     -0.0001      0.0008      0.0005
        39        -0.0310      0.0000      0.0000      0.0310      0.0207
        40         0.0000     -0.0002      0.0000      0.0002      0.0001
        41         0.0000     -0.0005      0.0000      0.0005      0.0004
        42        -0.0738      0.0000      0.0000      0.0738      0.0492
        43         0.0000     -0.0099     -0.0001      0.0099      0.0066
        44         0.0000     -0.0008     -0.0007      0.0015      0.0010
        45        -0.0105      0.0000      0.0000      0.0105      0.0070
        46         0.0000     -0.0018     -0.0003      0.0021      0.0014
        47         0.0000     -0.0219     -0.0001      0.0220      0.0147
        48         0.0000     -0.0016      0.0000      0.0016      0.0010
        49         0.0000     -0.0233     -0.0002      0.0235      0.0157
        50         0.0000     -0.4051     -0.0001      0.4052      0.2701
        51        -0.1028     -0.0001      0.0000      0.1029      0.0686
        52        -0.0189     -0.0006      0.0000      0.0195      0.0130
        53        -0.0095     -0.0005      0.0000      0.0100      0.0066
        54        -0.0066      0.0000      0.0000      0.0066      0.0044
        55        -0.0006     -0.0003      0.0000      0.0009      0.0006
        56         0.0000      0.0000      0.0000      0.0001      0.0000
        57         0.0000     -0.0061     -0.0002      0.0063      0.0042
        58        -0.0006     -0.0001      0.0000      0.0007      0.0005
        59        -0.0004     -0.0115      0.0000      0.0119      0.0080
        60        -0.0086     -0.0008      0.0000      0.0094      0.0063
        61        -0.0003     -0.0040     -0.0005      0.0048      0.0032
        62        -0.0001     -0.0054      0.0000      0.0054      0.0036
        63        -0.0010      0.0000      0.0000      0.0010      0.0007
        64         0.0000     -0.3287      0.0000      0.3287      0.2191
[...]
 Alpha virt. eigenvalues --    0.52310   0.52681   0.53165   0.53457   0.53630
 Alpha virt. eigenvalues --    0.53914   0.54211   0.54371   0.54440   0.54649
 Alpha virt. eigenvalues --    0.54886   0.54933   0.55332   0.55448   0.55795
 Alpha virt. eigenvalues --    0.56116   0.56376   0.57066   0.57346   0.57392
 Alpha virt. eigenvalues --    0.57889   0.58062   0.58133   0.58296   0.58453
 Alpha virt. eigenvalues --    0.58724   0.59045   0.59160   0.59374   0.60201
 Alpha virt. eigenvalues --    0.60473   0.60617   0.60857   0.61002   0.61125
 Alpha virt. eigenvalues --    0.61322   0.61512   0.61889   0.62136   0.62546
 Alpha virt. eigenvalues --    0.63123   0.63615   0.63886   0.64020   0.64392
 Alpha virt. eigenvalues --    0.64803   0.64998   0.65431   0.65726   0.65838
 Alpha virt. eigenvalues --    0.66218   0.66510   0.66812   0.66965   0.67874
 Alpha virt. eigenvalues --    0.68085   0.68419   0.68602   0.68826   0.69533
 Alpha virt. eigenvalues --    0.69656   0.70794   0.71073   0.72352   0.72533
 Alpha virt. eigenvalues --    0.72570   0.73303   0.74237   0.74523   0.75113
 Alpha virt. eigenvalues --    0.75191   0.75248   0.75882   0.76394   0.76579
 Alpha virt. eigenvalues --    0.76847   0.76945   0.77094   0.77557   0.77726
 Alpha virt. eigenvalues --    0.77764   0.78425   0.78500   0.79049   0.79284
 Alpha virt. eigenvalues --    0.79420   0.79630   0.80079   0.80165   0.80440
 Alpha virt. eigenvalues --    0.81008   0.81051   0.81395   0.81460   0.82405
 Alpha virt. eigenvalues --    0.82654   0.82845   0.83657   0.83693   0.84132
 Alpha virt. eigenvalues --    0.84793   0.85095   0.85471   0.85660   0.85938
 Alpha virt. eigenvalues --    0.86000   0.86377   0.86446   0.86904   0.87252
 Alpha virt. eigenvalues --    0.87784   0.88262   0.88711   0.88876   0.89040
 Alpha virt. eigenvalues --    0.89223   0.89737   0.89852   0.90346   0.90667
 Alpha virt. eigenvalues --    0.90682   0.91184   0.91422   0.91526   0.91894
 Alpha virt. eigenvalues --    0.92059   0.92217   0.92357   0.93002   0.93340
 Alpha virt. eigenvalues --    0.93650   0.93998   0.94266   0.94855   0.94956
 Alpha virt. eigenvalues --    0.95636   0.95770   0.96025   0.96123   0.96163
 Alpha virt. eigenvalues --    0.96543   0.97075   0.97242   0.97344   0.97767
 Alpha virt. eigenvalues --    0.98099   0.98248   0.98866   0.99230   0.99534
 Alpha virt. eigenvalues --    0.99965   0.99992   1.00615   1.00619   1.00900
 Alpha virt. eigenvalues --    1.01253   1.01641   1.01651   1.01890   1.02093
 Alpha virt. eigenvalues --    1.02392   1.02603   1.02708   1.02952   1.03454
 Alpha virt. eigenvalues --    1.03678   1.04063   1.04289   1.04811   1.05001
 Alpha virt. eigenvalues --    1.05746   1.06147   1.06287   1.06770   1.07002
 Alpha virt. eigenvalues --    1.07931   1.08189   1.08506   1.09440   1.09618
 Alpha virt. eigenvalues --    1.11251   1.11596   1.12088   1.12375   1.12697
 Alpha virt. eigenvalues --    1.12898   1.13394   1.14577   1.15014   1.15542
 Alpha virt. eigenvalues --    1.16270   1.16682   1.17071   1.17076   1.17728
 Alpha virt. eigenvalues --    1.17837   1.18407   1.19055   1.19538   1.19889
 Alpha virt. eigenvalues --    1.20210   1.20781   1.20842   1.21006   1.21328
 Alpha virt. eigenvalues --    1.21661   1.21813   1.22045   1.22264   1.22473
 Alpha virt. eigenvalues --    1.22654   1.22945   1.23153   1.23185   1.23684
 Alpha virt. eigenvalues --    1.23783   1.24255   1.25072   1.25386   1.25609
 Alpha virt. eigenvalues --    1.25891   1.26181   1.26867   1.27508   1.28524
 Alpha virt. eigenvalues --    1.28578   1.28655   1.28915   1.29393   1.29476
 Alpha virt. eigenvalues --    1.29854   1.30247   1.30518   1.30880   1.31030
 Alpha virt. eigenvalues --    1.31285   1.31426   1.32111   1.32272   1.32864
 Alpha virt. eigenvalues --    1.33174   1.33973   1.34188   1.34277   1.34407
 Alpha virt. eigenvalues --    1.34484   1.34793   1.35002   1.35537   1.35889
 Alpha virt. eigenvalues --    1.35935   1.36069   1.36270   1.36612   1.37151
 Alpha virt. eigenvalues --    1.37468   1.37647   1.37725   1.38126   1.38415
 Alpha virt. eigenvalues --    1.38572   1.38848   1.39317   1.39366   1.39855
 Alpha virt. eigenvalues --    1.40186   1.40209   1.40862   1.41522   1.41606
 Alpha virt. eigenvalues --    1.42806   1.43112   1.43369   1.43672   1.43937
 Alpha virt. eigenvalues --    1.44487   1.44748   1.45003   1.45331   1.45447
 Alpha virt. eigenvalues --    1.45505   1.45689   1.46224   1.46558   1.47033
 Alpha virt. eigenvalues --    1.47223   1.48178   1.48759   1.49551   1.49666
 Alpha virt. eigenvalues --    1.50443   1.51009   1.51157   1.51658   1.51808
 Alpha virt. eigenvalues --    1.52441   1.52628   1.53396   1.53720   1.53947
 Alpha virt. eigenvalues --    1.54136   1.55483   1.56111   1.56206   1.56829
 Alpha virt. eigenvalues --    1.58212   1.58485   1.58901   1.60065   1.60417
 Alpha virt. eigenvalues --    1.62395   1.63215   1.64528   1.65065   1.65433
 Alpha virt. eigenvalues --    1.65896   1.65955   1.66066   1.66193   1.66544
 Alpha virt. eigenvalues --    1.66721   1.66878   1.67005   1.67244   1.67381
 Alpha virt. eigenvalues --    1.67602   1.67628   1.67932   1.68083   1.68245
 Alpha virt. eigenvalues --    1.68600   1.68931   1.69136   1.69317   1.69591
 Alpha virt. eigenvalues --    1.69933   1.70025   1.70532   1.70573   1.71324
 Alpha virt. eigenvalues --    1.71677   1.71806   1.72760   1.73174   1.73267
 Alpha virt. eigenvalues --    1.73439   1.73737   1.73856   1.73967   1.74138
 Alpha virt. eigenvalues --    1.74360   1.74468   1.74996   1.75538   1.75782
 Alpha virt. eigenvalues --    1.75989   1.76278   1.76351   1.76759   1.77013
 Alpha virt. eigenvalues --    1.77165   1.77284   1.77351   1.77456   1.78379
 Alpha virt. eigenvalues --    1.78474   1.78692   1.78801   1.78869   1.79247
 Alpha virt. eigenvalues --    1.79354   1.79525   1.79628   1.79898   1.79982
 Alpha virt. eigenvalues --    1.81384   1.81743   1.82024   1.82034   1.82714
 Alpha virt. eigenvalues --    1.82957   1.83113   1.83289   1.83578   1.83609
 Alpha virt. eigenvalues --    1.83752   1.84003   1.84034   1.84252   1.84280
 Alpha virt. eigenvalues --    1.84585   1.84740   1.84919   1.85318   1.85544
 Alpha virt. eigenvalues --    1.85868   1.85990   1.86103   1.86199   1.86424
 Alpha virt. eigenvalues --    1.86567   1.86967   1.87151   1.87506   1.87897
 Alpha virt. eigenvalues --    1.87983   1.88087   1.88548   1.88705   1.88956
 Alpha virt. eigenvalues --    1.89019   1.89074   1.89305   1.89469   1.90103
 Alpha virt. eigenvalues --    1.90159   1.90409   1.90635   1.90988   1.91107
 Alpha virt. eigenvalues --    1.91433   1.92050   1.92207   1.92418   1.93180
 Alpha virt. eigenvalues --    1.93273   1.93314   1.93505   1.93543   1.93573
 Alpha virt. eigenvalues --    1.93676   1.93992   1.94426   1.94719   1.95214
 Alpha virt. eigenvalues --    1.95499   1.95615   1.95910   1.96665   1.97386
 Alpha virt. eigenvalues --    1.97648   1.98015   1.98017   1.98397   1.98537
 Alpha virt. eigenvalues --    1.99187   1.99767   1.99939   2.00188   2.00325
 Alpha virt. eigenvalues --    2.00445   2.00837   2.00853   2.01143   2.01335
 Alpha virt. eigenvalues --    2.02427   2.03171   2.03379   2.03621   2.04660
 Alpha virt. eigenvalues --    2.04751   2.05330   2.05461   2.05814   2.06035
 Alpha virt. eigenvalues --    2.06662   2.06828   2.07171   2.07389   2.07742
 Alpha virt. eigenvalues --    2.07766   2.08733   2.08779   2.09787   2.10055
 Alpha virt. eigenvalues --    2.10404   2.11155   2.12000   2.12071   2.12834
 Alpha virt. eigenvalues --    2.13442   2.14160   2.15085   2.15208   2.15537
 Alpha virt. eigenvalues --    2.15816   2.16027   2.16178   2.16649   2.16960
 Alpha virt. eigenvalues --    2.17279   2.18023   2.18796   2.19641   2.20226
 Alpha virt. eigenvalues --    2.20617   2.21035   2.21143   2.21303   2.21637
 Alpha virt. eigenvalues --    2.21812   2.22428   2.22844   2.23729   2.23925
 Alpha virt. eigenvalues --    2.25557   2.26137   2.26631   2.26878   2.26968
 Alpha virt. eigenvalues --    2.27102   2.27748   2.27793   2.27861   2.27928
 Alpha virt. eigenvalues --    2.28649   2.28800   2.28883   2.29187   2.29350
 Alpha virt. eigenvalues --    2.29430   2.29512   2.29817   2.30036   2.30436
 Alpha virt. eigenvalues --    2.30799   2.31295   2.32488   2.32664   2.32987
 Alpha virt. eigenvalues --    2.33002   2.33154   2.33585   2.34041   2.34285
 Alpha virt. eigenvalues --    2.35283   2.35760   2.35958   2.36277   2.36569
 Alpha virt. eigenvalues --    2.37261   2.37526   2.38355   2.38412   2.38671
 Alpha virt. eigenvalues --    2.38764   2.38925   2.39171   2.39844   2.40138
 Alpha virt. eigenvalues --    2.40809   2.41050   2.41113   2.41555   2.41960
 Alpha virt. eigenvalues --    2.42257   2.43015   2.43197   2.43655   2.44121
 Alpha virt. eigenvalues --    2.44451   2.44694   2.45303   2.45466   2.46040
 Alpha virt. eigenvalues --    2.46208   2.46395   2.46779   2.47176   2.47570
 Alpha virt. eigenvalues --    2.47825   2.48693   2.48779   2.49258   2.49685
 Alpha virt. eigenvalues --    2.51057   2.52141   2.52365   2.54232   2.54332
 Alpha virt. eigenvalues --    2.54575   2.54683   2.55076   2.55552   2.55913
 Alpha virt. eigenvalues --    2.56650   2.56975   2.57269   2.57372   2.58786
 Alpha virt. eigenvalues --    2.59580   2.59668   2.59849   2.60003   2.60054
 Alpha virt. eigenvalues --    2.60335   2.60562   2.60802   2.61308   2.61488
 Alpha virt. eigenvalues --    2.61676   2.61989   2.62230   2.62819   2.63408
 Alpha virt. eigenvalues --    2.63627   2.63887   2.64359   2.64456   2.65194
 Alpha virt. eigenvalues --    2.65412   2.66099   2.66512   2.66721   2.66868
 Alpha virt. eigenvalues --    2.67314   2.67688   2.68309   2.68984   2.69099
 Alpha virt. eigenvalues --    2.70351   2.70603   2.71662   2.71927   2.72682
 Alpha virt. eigenvalues --    2.73724   2.74084   2.74793   2.75679   2.76059
 Alpha virt. eigenvalues --    2.77147   2.77575   2.77790   2.78233   2.78644
 Alpha virt. eigenvalues --    2.79008   2.79078   2.80482   2.80837   2.81160
 Alpha virt. eigenvalues --    2.82096   2.82415   2.83100   2.83213   2.84302
 Alpha virt. eigenvalues --    2.86071   2.86473   2.86814   2.89595   2.90917
 Alpha virt. eigenvalues --    2.91980   2.93850   2.94137   2.94863   2.95213
 Alpha virt. eigenvalues --    2.96088   2.97261   2.98510   2.98985   3.00676
 Alpha virt. eigenvalues --    3.01233   3.01678   3.02836   3.04529   3.04962
 Alpha virt. eigenvalues --    3.05574   3.05692   3.05941   3.09024   3.09437
 Alpha virt. eigenvalues --    3.10824   3.11930   3.12417   3.12489   3.12646
 Alpha virt. eigenvalues --    3.13401   3.13920   3.15270   3.16411   3.16938
 Alpha virt. eigenvalues --    3.20027   3.20769   3.21295   3.21772   3.22590
 Alpha virt. eigenvalues --    3.22631   3.23614   3.25442   3.25783   3.26910
 Alpha virt. eigenvalues --    3.27608   3.28168   3.29099   3.29652   3.29701
 Alpha virt. eigenvalues --    3.30179   3.30530   3.31893   3.32025   3.34320
 Alpha virt. eigenvalues --    3.34482   3.36592   3.37308   3.40125   3.40415
 Alpha virt. eigenvalues --    3.40464   3.41494   3.42074   3.42558   3.42656
 Alpha virt. eigenvalues --    3.44189   3.46819   3.46963   3.47046   3.49880
 Alpha virt. eigenvalues --    3.50804   3.51313   3.51885   3.54935   3.71061
 Alpha virt. eigenvalues --    3.72082   3.72983   3.73480   3.73690   3.86193
 Alpha virt. eigenvalues --    3.86665   3.86695   3.87774  19.29768
          Condensed to atoms (all electrons):
 Mulliken charges:
               1
     1  C    0.088759
     2  C    0.204417
     3  C   -0.225377
     4  C    0.420666
     5  C    0.049240
     6  C    0.402224
     7  C    0.083170
     8  C    0.226225
     9  C   -0.308143
    10  C    0.046198
    11  C   -0.529539
    12  C    0.421891
    13  H    0.121539
    14  H    0.115379
    15  H    0.117488
    16  N    0.354689
    17  N    0.354363
    18  N    0.217655
    19  N    0.219248
    20  C   -0.303927
    21  H    0.115081
    22  C   -0.532008
    23  H    0.121553
    24  C    0.402350
    25  C   -0.230175
    26  H    0.117542
    27  C    0.025649
    28  C    0.270065
    29  C    0.279561
    30  C    0.119553
    31  C   -0.734874
    32  C    0.257849
    33  C    0.269724
    34  C    0.193662
    35  C    0.245195
    36  C    0.553642
    37  C   -0.624723
    38  C    0.091254
    39  C    0.008977
    40  C    0.373905
    41  C    0.353107
    42  C    0.460798
    43  C   -0.725725
    44  C    0.250478
    45  C    0.252450
    46  C    0.197878
    47  C    0.252936
    48  C    0.548811
    49  C   -0.526423
    50  C   -0.293988
    51  H    0.164884
    52  C   -0.523182
    53  C   -0.292839
    54  H    0.164692
    55  F   -0.278608
    56  F   -0.349939
    57  F   -0.351708
    58  F   -0.350327
    59  F   -0.276941
    60  F   -0.279164
    61  F   -0.355332
    62  F   -0.351168
    63  F   -0.354286
    64  F   -0.281111
    65  F   -0.276646
    66  F   -0.350299
    67  F   -0.351683
    68  F   -0.350059
    69  F   -0.278909
    70  H    0.120235
    71  H    0.120236
    72  O   -0.551056
    73  C    0.291747
    74  C    0.297740
    75  C   -0.096834
    76  H    0.142093
    77  S    0.017919
    78  S    0.017021
    79  C   -0.097858
    80  H    0.142093
    81  Pd  -0.250982
 Sum of Mulliken charges =  -1.00000
 Mulliken charges with hydrogens summed into heavy atoms:
               1
     1  C    0.088759
     2  C    0.204417
     3  C   -0.107888
     4  C    0.420666
     5  C    0.049240
     6  C    0.402224
     7  C    0.083170
     8  C    0.226225
     9  C   -0.192764
    10  C    0.046198
    11  C   -0.408001
    12  C    0.421891
    16  N    0.354689
    17  N    0.354363
    18  N    0.217655
    19  N    0.219248
    20  C   -0.188846
    22  C   -0.410455
    24  C    0.402350
    25  C   -0.112633
    27  C    0.025649
    28  C    0.270065
    29  C    0.279561
    30  C    0.119553
    31  C   -0.734874
    32  C    0.257849
    33  C    0.269724
    34  C    0.193662
    35  C    0.245195
    36  C    0.553642
    37  C   -0.624723
    38  C    0.091254
    39  C    0.008977
    40  C    0.373905
    41  C    0.353107
    42  C    0.460798
    43  C   -0.725725
    44  C    0.250478
    45  C    0.252450
    46  C    0.197878
    47  C    0.252936
    48  C    0.548811
    49  C   -0.526423
    50  C   -0.173752
    52  C   -0.523182
    53  C   -0.172604
    55  F   -0.278608
    56  F   -0.349939
    57  F   -0.351708
    58  F   -0.350327
    59  F   -0.276941
    60  F   -0.279164
    61  F   -0.355332
    62  F   -0.351168
    63  F   -0.354286
    64  F   -0.281111
    65  F   -0.276646
    66  F   -0.350299
    67  F   -0.351683
    68  F   -0.350059
    69  F   -0.278909
    72  O   -0.551056
    73  C    0.456439
    74  C    0.462624
    75  C    0.045259
    77  S    0.017919
    78  S    0.017021
    79  C    0.044235
    81  Pd  -0.250982
 Electronic spatial extent (au):  <R**2>=          66952.9127
 Charge=             -1.0000 electrons
 Dipole moment (field-independent basis, Debye):
    X=              0.0120    Y=              3.7877    Z=              0.9146  Tot=              3.8966
 Quadrupole moment (field-independent basis, Debye-Ang):
   XX=           -498.6288   YY=           -484.9421   ZZ=           -448.7969
   XY=             -0.0651   XZ=              1.2831   YZ=             -1.8814
 Traceless Quadrupole moment (field-independent basis, Debye-Ang):
   XX=            -21.1729   YY=             -7.4861   ZZ=             28.6590
   XY=             -0.0651   XZ=              1.2831   YZ=             -1.8814
 Octapole moment (field-independent basis, Debye-Ang**2):
  XXX=              2.7698  YYY=            -53.1778  ZZZ=             -1.5356  XYY=             -0.9801
  XXY=            165.0756  XXZ=            -11.3822  XZZ=             -1.3635  YZZ=             27.5939
  YYZ=             30.8301  XYZ=             11.7228
 Hexadecapole moment (field-independent basis, Debye-Ang**3):
 XXXX=         -49408.7386 YYYY=         -42212.7501 ZZZZ=          -4061.1141 XXXY=             18.3201
 XXXZ=            -32.9208 YYYX=            -17.9052 YYYZ=            126.7601 ZZZX=            -10.7738
 ZZZY=            -38.0752 XXYY=         -13310.6629 XXZZ=          -8612.8653 YYZZ=          -7619.1368
 XXYZ=           -183.7777 YYXZ=             68.7050 ZZXY=             -7.2823
 N-N= 1.158441924611D+04 E-N=-3.370856735166D+04  KE= 4.370748080673D+03
 Unable to Open any file for archive entry.
 1\1\GINC-CCNN795\SP\RB3LYP TD-FC\GenECP\C46H12F15N4O1Pd1S2(1-)\CPI\03-
 Sep-2022\0\\# td=(nstates=75) b3lyp/genecp geom=connectivity scf=maxcy
 c=1000\\title\\-1,1\C,0,-1.276848,-2.756837,-0.564856\C,0,1.250301,2.8
 3058,-0.17195\C,0,3.47737,2.530088,0.090578\C,0,2.79789,1.256343,0.043
 371\C,0,2.777483,-1.241563,-0.035075\C,0,2.510896,-3.470478,-0.398922\
 C,0,1.2603,-2.763542,-0.564197\C,0,-1.236876,2.839118,-0.180549\C,0,-2
 .516057,3.512865,-0.097929\C,0,-2.788367,-1.224977,-0.048243\C,0,-3.45
 559,-2.475783,-0.062817\C,0,-2.795524,1.273419,0.018344\H,0,-4.509821,
 -2.629968,0.117548\H,0,-2.66206,4.583548,-0.126243\H,0,4.542873,2.6661
 49,0.213295\N,0,1.440494,-1.435066,-0.312547\N,0,-1.451244,-1.426418,-
 0.319492\N,0,1.443109,1.477722,-0.123676\N,0,-1.437127,1.487162,-0.127
 195\C,0,2.530458,3.497942,-0.058427\H,0,2.680414,4.568468,-0.070017\C,
 0,3.438697,-2.495503,-0.053679\H,0,4.491676,-2.655614,0.128808\C,0,-2.
 531294,-3.45695,-0.3999\C,0,-3.469638,2.550659,0.043983\H,0,-4.536577,
 2.692593,0.145751\C,0,-0.009714,-3.360168,-0.967964\C,0,-3.415226,0.03
 3623,0.103257\C,0,3.409842,0.012757,0.128705\C,0,0.009092,3.483748,-0.
 242426\C,0,4.888132,-0.010701,0.369019\C,0,5.808808,-0.008294,-0.68478
 4\C,0,5.419626,-0.049141,1.662764\C,0,7.186004,-0.037566,-0.47118\C,0,
 6.792345,-0.079826,1.904124\C,0,7.678739,-0.074992,0.830561\C,0,0.0175
 75,4.976704,-0.317702\C,0,0.187719,5.650403,-1.534081\C,0,-0.138744,5.
 781871,0.81792\C,0,0.202489,7.041554,-1.624551\C,0,-0.130811,7.174521,
 0.755932\C,0,0.041268,7.806654,-0.472634\C,0,-4.896121,0.019689,0.3277
 61\C,0,-5.805311,0.0111,-0.735948\C,0,-5.441782,0.002019,1.616049\C,0,
 -7.184839,-0.009155,-0.537012\C,0,-6.817183,-0.019441,1.842814\C,0,-7.
 691838,-0.026016,0.759684\C,0,-2.86224,-4.881738,-0.44236\C,0,-3.09913
 1,-7.157259,-0.978033\H,0,-1.659259,-5.783142,-1.978851\C,0,2.835558,-
 4.896467,-0.448423\C,0,3.064973,-7.169464,-0.997851\H,0,1.63419,-5.783
 227,-1.994757\F,0,4.601359,-0.054136,2.727591\F,0,7.267938,-0.112681,3
 .16138\F,0,9.003364,-0.10181,1.049553\F,0,8.042133,-0.028554,-1.508017
 \F,0,5.377909,0.029867,-1.956034\F,0,0.340903,4.955253,-2.67311\F,0,0.
 366475,7.651726,-2.811938\F,0,0.052034,9.147746,-0.545931\F,0,-0.28284
 4,7.913329,1.869794\F,0,-0.299092,5.21788,2.026789\F,0,-5.360492,0.030
 017,-2.002869\F,0,-8.02963,-0.010815,-1.583174\F,0,-9.018876,-0.044056
 ,0.964538\F,0,-7.306532,-0.032723,3.095122\F,0,-4.635173,0.008206,2.68
 9683\H,0,2.84958,-8.083985,-1.540709\H,0,-2.885603,-8.076108,-1.514282
 \O,0,-0.01243,-4.415091,-1.633523\C,0,2.405447,-5.93036,-1.253724\C,0,
 -2.433565,-5.922542,-1.239504\C,0,-4.035407,-7.068092,0.019175\H,0,-4.
 671009,-7.847166,0.418655\S,0,-4.110962,-5.461643,0.664732\S,0,4.07785
 5,-5.4886,0.659373\C,0,3.997987,-7.090554,0.003292\H,0,4.628815,-7.874
 837,0.400134\Pd,0,-0.001247,0.027204,-0.243099\\Version=ES64L-G16RevC.
 01\State=1-A\HF=-4475.2230801\RMSD=7.151e-09\PG=C01 [X(C46H12F15N4O1Pd
 1S2)]\\@
 The archive entry for this job was punched.


 MYSTERY IS THE WISDOM OF BLOCKHEADS... HORACE WALPOLE 
 Job cpu time:       7 days  0 hours 12 minutes 32.1 seconds.
 Elapsed time:       0 days 10 hours 30 minutes 50.9 seconds.
 File lengths (MBytes):  RWF=  54250 Int=      0 D2E=      0 Chk=   7010 Scr=      1
 Normal termination of Gaussian 16 at Sat Sep  3 23:26:19 2022.
