 Entering Gaussian System, Link 0=/local/apl/lx/g16c01/g16/._.g16
 Initial command:
 /local/apl/lx/g16c01/g16/l1.exe "/work/users/cpi/tmp.20500/Gau-20557.inp" -scrdir="/work/users/cpi/tmp.20500/"
 Entering Link 1 = /local/apl/lx/g16c01/g16/l1.exe PID=     20558.
  
 Copyright (c) 1988-2019, Gaussian, Inc.  All Rights Reserved.
  
 This is part of the Gaussian(R) 16 program.  It is based on
 the Gaussian(R) 09 system (copyright 2009, Gaussian, Inc.),
 the Gaussian(R) 03 system (copyright 2003, Gaussian, Inc.),
 the Gaussian(R) 98 system (copyright 1998, Gaussian, Inc.),
 the Gaussian(R) 94 system (copyright 1995, Gaussian, Inc.),
 the Gaussian 92(TM) system (copyright 1992, Gaussian, Inc.),
 the Gaussian 90(TM) system (copyright 1990, Gaussian, Inc.),
 the Gaussian 88(TM) system (copyright 1988, Gaussian, Inc.),
 the Gaussian 86(TM) system (copyright 1986, Carnegie Mellon
 University), and the Gaussian 82(TM) system (copyright 1983,
 Carnegie Mellon University). Gaussian is a federally registered
 trademark of Gaussian, Inc.
  
 This software contains proprietary and confidential information,
 including trade secrets, belonging to Gaussian, Inc.
  
 This software is provided under written license and may be
 used, copied, transmitted, or stored only in accord with that
 written license.
  
 The following legend is applicable only to US Government
 contracts under FAR:
  
                    RESTRICTED RIGHTS LEGEND
  
 Use, reproduction and disclosure by the US Government is
 subject to restrictions as set forth in subparagraphs (a)
 and (c) of the Commercial Computer Software - Restricted
 Rights clause in FAR 52.227-19.
  
 Gaussian, Inc.
 340 Quinnipiac St., Bldg. 40, Wallingford CT 06492
  
  
 ---------------------------------------------------------------
 Warning -- This program may not be used in any manner that
 competes with the business of Gaussian, Inc. or will provide
 assistance to any competitor of Gaussian, Inc.  The licensee
 of this program is prohibited from giving any competitor of
 Gaussian, Inc. access to this program.  By using this program,
 the user acknowledges that Gaussian, Inc. is engaged in the
 business of creating and licensing software in the field of
 computational chemistry and represents and warrants to the
 licensee that it is not a competitor of Gaussian, Inc. and that
 it will not use this program in any manner prohibited above.
 ---------------------------------------------------------------
  

 Cite this work as:
 Gaussian 16, Revision C.01,
 M. J. Frisch, G. W. Trucks, H. B. Schlegel, G. E. Scuseria, 
 M. A. Robb, J. R. Cheeseman, G. Scalmani, V. Barone, 
 G. A. Petersson, H. Nakatsuji, X. Li, M. Caricato, A. V. Marenich, 
 J. Bloino, B. G. Janesko, R. Gomperts, B. Mennucci, H. P. Hratchian, 
 J. V. Ortiz, A. F. Izmaylov, J. L. Sonnenberg, D. Williams-Young, 
 F. Ding, F. Lipparini, F. Egidi, J. Goings, B. Peng, A. Petrone, 
 T. Henderson, D. Ranasinghe, V. G. Zakrzewski, J. Gao, N. Rega, 
 G. Zheng, W. Liang, M. Hada, M. Ehara, K. Toyota, R. Fukuda, 
 J. Hasegawa, M. Ishida, T. Nakajima, Y. Honda, O. Kitao, H. Nakai, 
 T. Vreven, K. Throssell, J. A. Montgomery, Jr., J. E. Peralta, 
 F. Ogliaro, M. J. Bearpark, J. J. Heyd, E. N. Brothers, K. N. Kudin, 
 V. N. Staroverov, T. A. Keith, R. Kobayashi, J. Normand, 
 K. Raghavachari, A. P. Rendell, J. C. Burant, S. S. Iyengar, 
 J. Tomasi, M. Cossi, J. M. Millam, M. Klene, C. Adamo, R. Cammi, 
 J. W. Ochterski, R. L. Martin, K. Morokuma, O. Farkas, 
 J. B. Foresman, and D. J. Fox, Gaussian, Inc., Wallingford CT, 2019.
 
 ******************************************
 Gaussian 16:  ES64L-G16RevC.01  3-Jul-2019
                 3-Sep-2022 
 ******************************************
 %mem=100GB
 %nprocshare=16
 Will use up to   16 processors via shared memory.
 %chk=Pd_3C6F5_Por_dithiophene_OH_1.chk
 ----------------------------------------------------------------
 # td=(nstates=75) b3lyp/genecp geom=connectivity scf=maxcyc=1000
 ----------------------------------------------------------------
 1/38=1,57=2,172=1/1;
 2/12=2,17=6,18=5,40=1/2;
 3/5=7,11=9,16=1,17=8,25=1,30=1,74=-5/1,2,3,8;
 4//1;
 5/5=2,7=1000,38=5/2;
 8/6=1,10=1,108=75/1;
 9/41=75,42=1,70=2/14;
 6/7=2,8=2,9=2,10=2/1;
 99/5=1,9=1/99;
 -----
 title
 -----
 Symbolic Z-matrix:
 Charge =  0 Multiplicity = 1
 C                    -1.33947  -2.75689  -0.19015 
 C                     1.34664   2.792     0.01874 
 C                     3.56893   2.43447   0.1834 
 C                     2.85622   1.17901   0.08596 
 C                     2.77115  -1.30165  -0.03856 
 C                     2.44448  -3.53054  -0.27168 
 C                     1.1759   -2.82359  -0.22412 
 C                    -1.1274    2.87589  -0.05933 
 C                    -2.38497   3.59308  -0.07167 
 C                    -2.81853  -1.11964  -0.05733 
 C                    -3.54937  -2.34495  -0.07872 
 C                    -2.74099   1.36609  -0.03391 
 H                    -4.62516  -2.43176  -0.07138 
 H                    -2.48715   4.66758  -0.09646 
 H                     4.63931   2.53578   0.28233 
 N                     1.41446  -1.47502  -0.10163 
 N                    -1.47834  -1.38758  -0.12503 
 N                     1.50446   1.43214  -0.00556 
 N                    -1.37373   1.5285   -0.04636 
 C                     2.64399   3.42402   0.13389 
 H                     2.81284   4.48909   0.18793 
 C                     3.41633  -2.57194  -0.13352 
 H                     4.48281  -2.7394   -0.14577 
 C                    -2.65736  -3.38567  -0.17225 
 C                    -3.3744    2.66702  -0.04367 
 H                    -4.44021   2.83933  -0.03175 
 C                    -0.10197  -3.42373  -0.23087 
 C                    -3.42093   0.1544   -0.01574 
 C                     3.45708  -0.07379   0.07472 
 C                     0.13185   3.48627  -0.03133 
 C                     4.94718  -0.13343   0.17685 
 C                     5.77127   0.23613  -0.89151 
 C                     5.57858  -0.56906   1.34697 
 C                     7.16079   0.18274  -0.80399 
 C                     6.96565  -0.63575   1.45627 
 C                     7.7586   -0.25645   0.37521 
 C                     0.18555   4.97959  -0.03604 
 C                     0.60591   5.68921  -1.16638 
 C                    -0.17659   5.73095   1.08737 
 C                     0.66672   7.08093  -1.18454 
 C                    -0.13025   7.12329   1.09116 
 C                     0.29512   7.79944  -0.05028 
 C                    -4.91506   0.19893   0.04023 
 C                    -5.68074   0.50393  -1.08931 
 C                    -5.60554  -0.06984   1.22637 
 C                    -7.07269   0.54633  -1.0465 
 C                    -6.9967   -0.03819   1.29254 
 C                    -7.73136   0.2724    0.15013 
 C                    -3.08565  -4.78566  -0.22409 
 C                    -3.50404  -7.00276  -0.85931 
 H                    -1.9289   -5.74323  -1.77566 
 C                     2.71852  -4.96457  -0.43815 
 C                     2.92097  -7.12762  -1.32965 
 H                     1.80191  -5.49111  -2.33026 
 F                     4.84458  -0.93815   2.40461 
 F                     7.53903  -1.05456   2.58935 
 F                     9.08873  -0.31372   0.46929 
 F                     7.92142   0.54333  -1.84301 
 F                     5.22895   0.658    -2.04109 
 F                     0.96736   5.02902  -2.27412 
 F                     1.0725    7.72955  -2.28135 
 F                     0.34658   9.13325  -0.05699 
 F                    -0.48356   7.81243   2.18152 
 F                    -0.58576   5.112     2.20266 
 F                    -5.07704   0.77019  -2.25513 
 F                    -7.77789   0.84338  -2.14333 
 F                    -9.06467   0.30875   0.20245 
 F                    -7.62901  -0.29769   2.44171 
 F                    -4.92684  -0.36988   2.34081 
 H                     2.76387  -7.92439  -2.04726 
 H                    -3.35953  -7.91651  -1.42486 
 C                     2.38709  -5.81384  -1.47607 
 C                    -2.72634  -5.82576  -1.04987 
 C                    -4.4561   -6.86292   0.11457 
 H                    -5.16491  -7.59714   0.47175 
 S                    -4.41585  -5.28141   0.81383 
 S                     3.71611  -5.80851   0.73214 
 C                     3.66445  -7.27211  -0.19001 
 H                     4.17579  -8.15544   0.16729 
 Pd                    0.01589   0.02415  -0.07076 
 O                    -0.19856  -4.76918  -0.26436 
 H                     0.68019  -5.18568  -0.23312 
 
 Stoichiometry    C46H13F15N4OPdS2
 Framework group  C1[X(C46H13F15N4OPdS2)]
 Deg. of freedom   240
 Full point group                 C1      NOp   1
 Largest Abelian subgroup         C1      NOp   1
 Largest concise Abelian subgroup C1      NOp   1
                         Standard orientation:                         
 ---------------------------------------------------------------------
 Center     Atomic      Atomic             Coordinates (Angstroms)
 Number     Number       Type             X           Y           Z
 ---------------------------------------------------------------------
      1          6           0       -1.339465   -2.756887   -0.190146
      2          6           0        1.346644    2.791997    0.018744
      3          6           0        3.568931    2.434468    0.183398
      4          6           0        2.856216    1.179005    0.085958
      5          6           0        2.771149   -1.301652   -0.038559
      6          6           0        2.444483   -3.530538   -0.271681
      7          6           0        1.175900   -2.823586   -0.224124
      8          6           0       -1.127398    2.875887   -0.059328
      9          6           0       -2.384974    3.593083   -0.071669
     10          6           0       -2.818533   -1.119641   -0.057327
     11          6           0       -3.549368   -2.344946   -0.078715
     12          6           0       -2.740993    1.366092   -0.033909
     13          1           0       -4.625165   -2.431759   -0.071379
     14          1           0       -2.487154    4.667581   -0.096460
     15          1           0        4.639314    2.535782    0.282328
     16          7           0        1.414457   -1.475024   -0.101631
     17          7           0       -1.478335   -1.387578   -0.125027
     18          7           0        1.504464    1.432137   -0.005560
     19          7           0       -1.373727    1.528504   -0.046362
     20          6           0        2.643986    3.424024    0.133890
     21          1           0        2.812844    4.489094    0.187930
     22          6           0        3.416326   -2.571938   -0.133517
     23          1           0        4.482808   -2.739397   -0.145767
     24          6           0       -2.657362   -3.385667   -0.172253
     25          6           0       -3.374398    2.667018   -0.043668
     26          1           0       -4.440208    2.839328   -0.031748
     27          6           0       -0.101969   -3.423732   -0.230869
     28          6           0       -3.420928    0.154398   -0.015741
     29          6           0        3.457078   -0.073787    0.074718
     30          6           0        0.131845    3.486269   -0.031331
     31          6           0        4.947179   -0.133434    0.176848
     32          6           0        5.771266    0.236130   -0.891514
     33          6           0        5.578583   -0.569060    1.346966
     34          6           0        7.160787    0.182739   -0.803988
     35          6           0        6.965650   -0.635746    1.456266
     36          6           0        7.758599   -0.256452    0.375212
     37          6           0        0.185548    4.979593   -0.036035
     38          6           0        0.605911    5.689205   -1.166382
     39          6           0       -0.176592    5.730945    1.087371
     40          6           0        0.666715    7.080928   -1.184539
     41          6           0       -0.130248    7.123293    1.091163
     42          6           0        0.295117    7.799435   -0.050280
     43          6           0       -4.915062    0.198926    0.040226
     44          6           0       -5.680740    0.503934   -1.089314
     45          6           0       -5.605541   -0.069841    1.226370
     46          6           0       -7.072690    0.546334   -1.046499
     47          6           0       -6.996695   -0.038186    1.292543
     48          6           0       -7.731364    0.272395    0.150134
     49          6           0       -3.085652   -4.785658   -0.224090
     50          6           0       -3.504038   -7.002763   -0.859312
     51          1           0       -1.928899   -5.743225   -1.775655
     52          6           0        2.718517   -4.964570   -0.438152
     53          6           0        2.920974   -7.127615   -1.329651
     54          1           0        1.801908   -5.491109   -2.330264
     55          9           0        4.844581   -0.938148    2.404606
     56          9           0        7.539029   -1.054555    2.589345
     57          9           0        9.088732   -0.313722    0.469293
     58          9           0        7.921418    0.543333   -1.843009
     59          9           0        5.228947    0.658002   -2.041089
     60          9           0        0.967364    5.029018   -2.274115
     61          9           0        1.072500    7.729554   -2.281347
     62          9           0        0.346576    9.133245   -0.056985
     63          9           0       -0.483555    7.812431    2.181520
     64          9           0       -0.585764    5.112000    2.202664
     65          9           0       -5.077042    0.770186   -2.255127
     66          9           0       -7.777890    0.843384   -2.143330
     67          9           0       -9.064669    0.308750    0.202453
     68          9           0       -7.629014   -0.297688    2.441709
     69          9           0       -4.926835   -0.369883    2.340811
     70          1           0        2.763867   -7.924386   -2.047263
     71          1           0       -3.359531   -7.916512   -1.424856
     72          6           0        2.387086   -5.813835   -1.476074
     73          6           0       -2.726337   -5.825761   -1.049865
     74          6           0       -4.456100   -6.862923    0.114565
     75          1           0       -5.164904   -7.597138    0.471749
     76         16           0       -4.415846   -5.281414    0.813827
     77         16           0        3.716114   -5.808508    0.732139
     78          6           0        3.664451   -7.272108   -0.190011
     79          1           0        4.175789   -8.155438    0.167291
     80         46           0        0.015889    0.024152   -0.070758
     81          8           0       -0.198558   -4.769180   -0.264358
     82          1           0        0.680194   -5.185683   -0.233121
 ---------------------------------------------------------------------
 Rotational constants (GHZ):           0.0284850           0.0239941           0.0141098
 General basis read from cards:  (5D, 7F)
 ======================================================================================================
                                       Pseudopotential Parameters
 ======================================================================================================
  Center     Atomic      Valence      Angular      Power
  Number     Number     Electrons     Momentum     of R      Exponent        Coefficient   SO-Coeffient
 ======================================================================================================
    1          6
                                   No pseudopotential on this center.
    2          6
                                   No pseudopotential on this center.
    3          6
                                   No pseudopotential on this center.
    4          6
                                   No pseudopotential on this center.
    5          6
                                   No pseudopotential on this center.
    6          6
                                   No pseudopotential on this center.
    7          6
                                   No pseudopotential on this center.
    8          6
                                   No pseudopotential on this center.
    9          6
                                   No pseudopotential on this center.
   10          6
                                   No pseudopotential on this center.
   11          6
                                   No pseudopotential on this center.
   12          6
                                   No pseudopotential on this center.
   13          1
                                   No pseudopotential on this center.
   14          1
                                   No pseudopotential on this center.
   15          1
                                   No pseudopotential on this center.
   16          7
                                   No pseudopotential on this center.
   17          7
                                   No pseudopotential on this center.
   18          7
                                   No pseudopotential on this center.
   19          7
                                   No pseudopotential on this center.
   20          6
                                   No pseudopotential on this center.
   21          1
                                   No pseudopotential on this center.
   22          6
                                   No pseudopotential on this center.
   23          1
                                   No pseudopotential on this center.
   24          6
                                   No pseudopotential on this center.
   25          6
                                   No pseudopotential on this center.
   26          1
                                   No pseudopotential on this center.
   27          6
                                   No pseudopotential on this center.
   28          6
                                   No pseudopotential on this center.
   29          6
                                   No pseudopotential on this center.
   30          6
                                   No pseudopotential on this center.
   31          6
                                   No pseudopotential on this center.
   32          6
                                   No pseudopotential on this center.
   33          6
                                   No pseudopotential on this center.
   34          6
                                   No pseudopotential on this center.
   35          6
                                   No pseudopotential on this center.
   36          6
                                   No pseudopotential on this center.
   37          6
                                   No pseudopotential on this center.
   38          6
                                   No pseudopotential on this center.
   39          6
                                   No pseudopotential on this center.
   40          6
                                   No pseudopotential on this center.
   41          6
                                   No pseudopotential on this center.
   42          6
                                   No pseudopotential on this center.
   43          6
                                   No pseudopotential on this center.
   44          6
                                   No pseudopotential on this center.
   45          6
                                   No pseudopotential on this center.
   46          6
                                   No pseudopotential on this center.
   47          6
                                   No pseudopotential on this center.
   48          6
                                   No pseudopotential on this center.
   49          6
                                   No pseudopotential on this center.
   50          6
                                   No pseudopotential on this center.
   51          1
                                   No pseudopotential on this center.
   52          6
                                   No pseudopotential on this center.
   53          6
                                   No pseudopotential on this center.
   54          1
                                   No pseudopotential on this center.
   55          9
                                   No pseudopotential on this center.
   56          9
                                   No pseudopotential on this center.
   57          9
                                   No pseudopotential on this center.
   58          9
                                   No pseudopotential on this center.
   59          9
                                   No pseudopotential on this center.
   60          9
                                   No pseudopotential on this center.
   61          9
                                   No pseudopotential on this center.
   62          9
                                   No pseudopotential on this center.
   63          9
                                   No pseudopotential on this center.
   64          9
                                   No pseudopotential on this center.
   65          9
                                   No pseudopotential on this center.
   66          9
                                   No pseudopotential on this center.
   67          9
                                   No pseudopotential on this center.
   68          9
                                   No pseudopotential on this center.
   69          9
                                   No pseudopotential on this center.
   70          1
                                   No pseudopotential on this center.
   71          1
                                   No pseudopotential on this center.
   72          6
                                   No pseudopotential on this center.
   73          6
                                   No pseudopotential on this center.
   74          6
                                   No pseudopotential on this center.
   75          1
                                   No pseudopotential on this center.
   76         16
                                   No pseudopotential on this center.
   77         16
                                   No pseudopotential on this center.
   78          6
                                   No pseudopotential on this center.
   79          1
                                   No pseudopotential on this center.
   80         46           18
                                      F and up 
                                                     0      598.3336444       -0.05631770    0.00000000
                                                     1      162.4298290      -20.12880360    0.00000000
                                                     2       51.5714771     -105.81979230    0.00000000
                                                     2       16.4888260      -42.57333450    0.00000000
                                                     2        5.8287656       -3.61650860    0.00000000
                                      S - F
                                                     0       73.3806304        3.00036510    0.00000000
                                                     1       14.7550438       32.43500930    0.00000000
                                                     2       17.8350204      459.08303830    0.00000000
                                                     2       12.7111477     -868.06290290    0.00000000
                                                     2        9.3292063      514.47260980    0.00000000
                                      P - F
                                                     0       55.6689877        4.95930990    0.00000000
                                                     1       64.2337771       21.17110290    0.00000000
                                                     2       17.6254952      605.05600920    0.00000000
                                                     2       11.9058155     -726.96418460    0.00000000
                                                     2        8.5100832      396.32748830    0.00000000
                                      D - F
                                                     0       49.9994728        3.05087450    0.00000000
                                                     1       39.7477547       22.25065800    0.00000000
                                                     2       11.4321366      674.83576980    0.00000000
                                                     2        9.1790080    -1040.85540480    0.00000000
                                                     2        7.5624429      505.93751470    0.00000000
   81          8
                                   No pseudopotential on this center.
   82          1
                                   No pseudopotential on this center.
 ======================================================================================================
 There are  1117 symmetry adapted cartesian basis functions of A   symmetry.
 There are  1047 symmetry adapted basis functions of A   symmetry.
  1047 basis functions,  2092 primitive gaussians,  1117 cartesian basis functions
   255 alpha electrons      255 beta electrons
       nuclear repulsion energy     11648.9389383477 Hartrees.
 NAtoms=   82 NActive=   82 NUniq=   82 SFac= 1.00D+00 NAtFMM=   60 NAOKFM=T Big=T
 Integral buffers will be    131072 words long.
 Regular integral format.
 Two-electron integral symmetry is turned on.
 One-electron integrals computed using PRISM.
   1 Symmetry operations used in ECPInt.
 ECPInt:  NShTT=   51681 NPrTT=  356209 LenC2=   27449 LenP2D=   88578.
 LDataN:  DoStor=T MaxTD1= 5 Len=  102
 NBasis=  1047 RedAO= T EigKep=  2.96D-04  NBF=  1047
 NBsUse=  1047 1.00D-06 EigRej= -1.00D+00 NBFU=  1047
 Defaulting to unpruned grid for atomic number  46.
 ExpMin= 2.62D-02 ExpMax= 2.19D+04 ExpMxC= 3.30D+03 IAcc=3 IRadAn=         5 AccDes= 0.00D+00
 Harris functional with IExCor=  402 and IRadAn=       5 diagonalized for initial guess.
 HarFok:  IExCor=  402 AccDes= 0.00D+00 IRadAn=         5 IDoV= 1 UseB2=F ITyADJ=14
 ICtDFT=  3500011 ScaDFX=  1.000000  1.000000  1.000000  1.000000
 Defaulting to unpruned grid for atomic number  46.
 FoFCou: FMM=F IPFlag=           0 FMFlag=      100000 FMFlg1=        2001
         NFxFlg=           0 DoJE=T BraDBF=F KetDBF=T FulRan=T
         wScrn=  0.000000 ICntrl=       500 IOpCl=  0 I1Cent=   200000004 NGrid=           0
         NMat0=    1 NMatS0=      1 NMatT0=    0 NMatD0=    1 NMtDS0=    0 NMtDT0=    0
 Petite list used in FoFCou.
 Requested convergence on RMS density matrix=1.00D-08 within1000 cycles.
 Requested convergence on MAX density matrix=1.00D-06.
 Requested convergence on             energy=1.00D-06.
 No special actions if energy rises.
 Defaulting to unpruned grid for atomic number  46.
 Defaulting to unpruned grid for atomic number  46.
 Defaulting to unpruned grid for atomic number  46.
 Defaulting to unpruned grid for atomic number  46.
 Defaulting to unpruned grid for atomic number  46.
 Defaulting to unpruned grid for atomic number  46.
 Defaulting to unpruned grid for atomic number  46.
 Defaulting to unpruned grid for atomic number  46.
 Defaulting to unpruned grid for atomic number  46.
 Defaulting to unpruned grid for atomic number  46.
 Defaulting to unpruned grid for atomic number  46.
 Defaulting to unpruned grid for atomic number  46.
 Defaulting to unpruned grid for atomic number  46.
 Defaulting to unpruned grid for atomic number  46.
 Defaulting to unpruned grid for atomic number  46.
 Defaulting to unpruned grid for atomic number  46.
 EnCoef did   100 forward-backward iterations
 EnCoef did   100 forward-backward iterations
 EnCoef did   100 forward-backward iterations
 EnCoef did   100 forward-backward iterations
 EnCoef did   100 forward-backward iterations
 EnCoef did     6 forward-backward iterations
 EnCoef did     5 forward-backward iterations
 Restarting incremental Fock formation.
 SCF Done:  E(RB3LYP) =  -4475.52940306     A.U. after   27 cycles
            NFock= 27  Conv=0.40D-08     -V/T= 2.0236
 DoSCS=F DFT=T ScalE2(SS,OS)=  1.000000  1.000000
 ExpMin= 2.62D-02 ExpMax= 2.19D+04 ExpMxC= 3.30D+03 IAcc=3 IRadAn=         5 AccDes= 0.00D+00
 HarFok:  IExCor=  205 AccDes= 0.00D+00 IRadAn=         5 IDoV=-2 UseB2=F ITyADJ=14
 ICtDFT= 12500011 ScaDFX=  1.000000  1.000000  1.000000  1.000000
 Defaulting to unpruned grid for atomic number  46.
 GSVD:  LWork=       -7040 too small for GESVD, short by       33200 words or       33200 for optimal perf.
 Range of M.O.s used for correlation:    81  1047
 NBasis=  1047 NAE=   255 NBE=   255 NFC=    80 NFV=     0
 NROrb=    967 NOA=   175 NOB=   175 NVA=   792 NVB=   792
 Orbital symmetries:
       Occupied  (A) (A) (A) (A) (A) (A) (A) (A) (A) (A) (A) (A)
                 (A) (A) (A) (A) (A) (A) (A) (A) (A) (A) (A) (A)
                 (A) (A) (A) (A) (A) (A) (A) (A) (A) (A) (A) (A)
                 (A) (A) (A) (A) (A) (A) (A) (A) (A) (A) (A) (A)
                 (A) (A) (A) (A) (A) (A) (A) (A) (A) (A) (A) (A)
                 (A) (A) (A) (A) (A) (A) (A) (A) (A) (A) (A) (A)
                 (A) (A) (A) (A) (A) (A) (A) (A) (A) (A) (A) (A)
                 (A) (A) (A) (A) (A) (A) (A) (A) (A) (A) (A) (A)
                 (A) (A) (A) (A) (A) (A) (A) (A) (A) (A) (A) (A)
                 (A) (A) (A) (A) (A) (A) (A) (A) (A) (A) (A) (A)
                 (A) (A) (A) (A) (A) (A) (A) (A) (A) (A) (A) (A)
                 (A) (A) (A) (A) (A) (A) (A) (A) (A) (A) (A) (A)
                 (A) (A) (A) (A) (A) (A) (A) (A) (A) (A) (A) (A)
                 (A) (A) (A) (A) (A) (A) (A) (A) (A) (A) (A) (A)
                 (A) (A) (A) (A) (A) (A) (A) (A) (A) (A) (A) (A)
                 (A) (A) (A) (A) (A) (A) (A) (A) (A) (A) (A) (A)
                 (A) (A) (A) (A) (A) (A) (A) (A) (A) (A) (A) (A)
                 (A) (A) (A) (A) (A) (A) (A) (A) (A) (A) (A) (A)
                 (A) (A) (A) (A) (A) (A) (A) (A) (A) (A) (A) (A)
                 (A) (A) (A) (A) (A) (A) (A) (A) (A) (A) (A) (A)
                 (A) (A) (A) (A) (A) (A) (A) (A) (A) (A) (A) (A)
                 (A) (A) (A)
       Virtual   (A) (A) (A) (A) (A) (A) (A) (A) (A) (A) (A) (A)
                 (A) (A) (A) (A) (A) (A) (A) (A) (A) (A) (A) (A)
                 (A) (A) (A) (A) (A) (A) (A) (A) (A) (A) (A) (A)
                 (A) (A) (A) (A) (A) (A) (A) (A) (A) (A) (A) (A)
                 (A) (A) (A) (A) (A) (A) (A) (A) (A) (A) (A) (A)
                 (A) (A) (A) (A) (A) (A) (A) (A) (A) (A) (A) (A)
                 (A) (A) (A) (A) (A) (A) (A) (A) (A) (A) (A) (A)
                 (A) (A) (A) (A) (A) (A) (A) (A) (A) (A) (A) (A)
                 (A) (A) (A) (A) (A) (A) (A) (A) (A) (A) (A) (A)
                 (A) (A) (A) (A) (A) (A) (A) (A) (A) (A) (A) (A)
                 (A) (A) (A) (A) (A) (A) (A) (A) (A) (A) (A) (A)
                 (A) (A) (A) (A) (A) (A) (A) (A) (A) (A) (A) (A)
                 (A) (A) (A) (A) (A) (A) (A) (A) (A) (A) (A) (A)
                 (A) (A) (A) (A) (A) (A) (A) (A) (A) (A) (A) (A)
                 (A) (A) (A) (A) (A) (A) (A) (A) (A) (A) (A) (A)
                 (A) (A) (A) (A) (A) (A) (A) (A) (A) (A) (A) (A)
                 (A) (A) (A) (A) (A) (A) (A) (A) (A) (A) (A) (A)
                 (A) (A) (A) (A) (A) (A) (A) (A) (A) (A) (A) (A)
                 (A) (A) (A) (A) (A) (A) (A) (A) (A) (A) (A) (A)
                 (A) (A) (A) (A) (A) (A) (A) (A) (A) (A) (A) (A)
                 (A) (A) (A) (A) (A) (A) (A) (A) (A) (A) (A) (A)
                 (A) (A) (A) (A) (A) (A) (A) (A) (A) (A) (A) (A)
                 (A) (A) (A) (A) (A) (A) (A) (A) (A) (A) (A) (A)
                 (A) (A) (A) (A) (A) (A) (A) (A) (A) (A) (A) (A)
                 (A) (A) (A) (A) (A) (A) (A) (A) (A) (A) (A) (A)
                 (A) (A) (A) (A) (A) (A) (A) (A) (A) (A) (A) (A)
                 (A) (A) (A) (A) (A) (A) (A) (A) (A) (A) (A) (A)
                 (A) (A) (A) (A) (A) (A) (A) (A) (A) (A) (A) (A)
                 (A) (A) (A) (A) (A) (A) (A) (A) (A) (A) (A) (A)
                 (A) (A) (A) (A) (A) (A) (A) (A) (A) (A) (A) (A)
                 (A) (A) (A) (A) (A) (A) (A) (A) (A) (A) (A) (A)
                 (A) (A) (A) (A) (A) (A) (A) (A) (A) (A) (A) (A)
                 (A) (A) (A) (A) (A) (A) (A) (A) (A) (A) (A) (A)
                 (A) (A) (A) (A) (A) (A) (A) (A) (A) (A) (A) (A)
                 (A) (A) (A) (A) (A) (A) (A) (A) (A) (A) (A) (A)
                 (A) (A) (A) (A) (A) (A) (A) (A) (A) (A) (A) (A)
                 (A) (A) (A) (A) (A) (A) (A) (A) (A) (A) (A) (A)
                 (A) (A) (A) (A) (A) (A) (A) (A) (A) (A) (A) (A)
                 (A) (A) (A) (A) (A) (A) (A) (A) (A) (A) (A) (A)
                 (A) (A) (A) (A) (A) (A) (A) (A) (A) (A) (A) (A)
                 (A) (A) (A) (A) (A) (A) (A) (A) (A) (A) (A) (A)
                 (A) (A) (A) (A) (A) (A) (A) (A) (A) (A) (A) (A)
                 (A) (A) (A) (A) (A) (A) (A) (A) (A) (A) (A) (A)
                 (A) (A) (A) (A) (A) (A) (A) (A) (A) (A) (A) (A)
                 (A) (A) (A) (A) (A) (A) (A) (A) (A) (A) (A) (A)
                 (A) (A) (A) (A) (A) (A) (A) (A) (A) (A) (A) (A)
                 (A) (A) (A) (A) (A) (A) (A) (A) (A) (A) (A) (A)
                 (A) (A) (A) (A) (A) (A) (A) (A) (A) (A) (A) (A)
                 (A) (A) (A) (A) (A) (A) (A) (A) (A) (A) (A) (A)
                 (A) (A) (A) (A) (A) (A) (A) (A) (A) (A) (A) (A)
                 (A) (A) (A) (A) (A) (A) (A) (A) (A) (A) (A) (A)
                 (A) (A) (A) (A) (A) (A) (A) (A) (A) (A) (A) (A)
                 (A) (A) (A) (A) (A) (A) (A) (A) (A) (A) (A) (A)
                 (A) (A) (A) (A) (A) (A) (A) (A) (A) (A) (A) (A)
                 (A) (A) (A) (A) (A) (A) (A) (A) (A) (A) (A) (A)
                 (A) (A) (A) (A) (A) (A) (A) (A) (A) (A) (A) (A)
                 (A) (A) (A) (A) (A) (A) (A) (A) (A) (A) (A) (A)
                 (A) (A) (A) (A) (A) (A) (A) (A) (A) (A) (A) (A)
                 (A) (A) (A) (A) (A) (A) (A) (A) (A) (A) (A) (A)
                 (A) (A) (A) (A) (A) (A) (A) (A) (A) (A) (A) (A)
                 (A) (A) (A) (A) (A) (A) (A) (A) (A) (A) (A) (A)
                 (A) (A) (A) (A) (A) (A) (A) (A) (A) (A) (A) (A)
                 (A) (A) (A) (A) (A) (A) (A) (A) (A) (A) (A) (A)
                 (A) (A) (A) (A) (A) (A) (A) (A) (A) (A) (A) (A)
                 (A) (A) (A) (A) (A) (A) (A) (A) (A) (A) (A) (A)
                 (A) (A) (A) (A) (A) (A) (A) (A) (A) (A) (A) (A)
   300 initial guesses have been made.
 Convergence on wavefunction:    0.001000000000000
 Iteration     1 Dimension   300 NMult     0 NNew    300
 CISAX will form   300 AO SS matrices at one time.
 Defaulting to unpruned grid for atomic number  46.
 Defaulting to unpruned grid for atomic number  46.
 Defaulting to unpruned grid for atomic number  46.
 Defaulting to unpruned grid for atomic number  46.
 Defaulting to unpruned grid for atomic number  46.
 Defaulting to unpruned grid for atomic number  46.
 Defaulting to unpruned grid for atomic number  46.
 Defaulting to unpruned grid for atomic number  46.
 Defaulting to unpruned grid for atomic number  46.
 Defaulting to unpruned grid for atomic number  46.
 Defaulting to unpruned grid for atomic number  46.
 Defaulting to unpruned grid for atomic number  46.
 Defaulting to unpruned grid for atomic number  46.
 Defaulting to unpruned grid for atomic number  46.
 Defaulting to unpruned grid for atomic number  46.
 Defaulting to unpruned grid for atomic number  46.
 New state      1 was old state      2
 New state      2 was old state      1
 New state      3 was old state      5
 New state      4 was old state      6
 New state      5 was old state      9
 New state      6 was old state      7
 New state      7 was old state     11
 New state      9 was old state     19
 New state     10 was old state     14
 New state     11 was old state     23
 New state     12 was old state     42
 New state     13 was old state     22
 New state     14 was old state     13
 New state     15 was old state     12
 New state     16 was old state     25
 New state     17 was old state     15
 New state     19 was old state     17
 New state     20 was old state     16
 New state     21 was old state     72
 New state     22 was old state     21
 New state     23 was old state     20
 New state     24 was old state     27
 New state     25 was old state     28
 New state     26 was old state     31
 New state     27 was old state     26
 New state     28 was old state     54
 New state     29 was old state     24
 New state     30 was old state     33
 New state     31 was old state     34
 New state     33 was old state     30
 New state     34 was old state     29
 New state     35 was old state     37
 New state     36 was old state     35
 New state     37 was old state     36
 New state     38 was old state     39
 New state     39 was old state     57
 New state     40 was old state     38
 New state     41 was old state     44
 New state     42 was old state     41
 New state     43 was old state     40
 New state     44 was old state     45
 New state     45 was old state     43
 New state     49 was old state     50
 New state     50 was old state     53
 New state     51 was old state     49
 New state     52 was old state     51
 New state     53 was old state     66
 New state     54 was old state     55
 New state     55 was old state     52
 New state     56 was old state    257
 New state     57 was old state     59
 New state     58 was old state     56
 New state     59 was old state     62
 New state     60 was old state     58
 New state     61 was old state     67
 No map to state     62
 New state     64 was old state     61
 New state     65 was old state     60
 New state     66 was old state     65
 New state     67 was old state     64
 No map to state     68
 New state     69 was old state     71
 New state     70 was old state     73
 New state     71 was old state     85
 New state     72 was old state     86
 New state     73 was old state    103
 New state     74 was old state     75
 New state     75 was old state     95
 Iteration     2 Dimension   450 NMult   300 NNew    150
 New state      1 was old state      2
 New state      2 was old state      1
 New state      8 was old state     10
 New state      9 was old state     13
 New state     10 was old state      8
 New state     11 was old state      9
 New state     12 was old state     17
 New state     13 was old state     11
 New state     14 was old state     12
 New state     15 was old state     14
 New state     16 was old state     15
 New state     17 was old state     16
 New state     18 was old state     19
 New state     19 was old state     21
 New state     20 was old state     24
 New state     21 was old state     18
 New state     22 was old state     20
 New state     23 was old state     25
 New state     24 was old state     22
 New state     25 was old state     23
 New state     26 was old state     28
 New state     27 was old state     26
 New state     28 was old state     27
 New state     29 was old state     30
 New state     30 was old state     29
 New state     31 was old state     33
 New state     32 was old state     31
 New state     33 was old state     32
 New state     34 was old state     37
 New state     36 was old state     34
 New state     37 was old state     38
 New state     38 was old state     36
 New state     40 was old state     46
 New state     42 was old state     40
 New state     43 was old state     45
 New state     44 was old state     42
 New state     45 was old state     43
 New state     46 was old state     44
 New state     47 was old state     51
 New state     48 was old state     47
 New state     49 was old state     48
 New state     50 was old state     49
 New state     51 was old state     50
 New state     52 was old state     53
 New state     53 was old state     57
 New state     54 was old state     52
 New state     56 was old state     54
 New state     57 was old state     56
 New state     58 was old state     66
 New state     59 was old state     63
 New state     60 was old state     65
 New state     61 was old state     58
 New state     62 was old state     60
 New state     63 was old state     61
 New state     64 was old state     62
 No map to state     65
 New state     66 was old state     64
 New state     67 was old state     68
 New state     68 was old state     71
 New state     69 was old state     67
 New state     71 was old state     69
 New state     72 was old state     77
 New state     74 was old state     72
 New state     75 was old state     81
 Iteration     3 Dimension   600 NMult   450 NNew    150
 New state     71 was old state     72
 New state     72 was old state     71
 New state     74 was old state     75
 New state     75 was old state     74
 Iteration     4 Dimension   750 NMult   600 NNew    150
 Iteration     5 Dimension   838 NMult   750 NNew     88
 Iteration     6 Dimension   848 NMult   838 NNew     10
 ***********************************************************************
 Excited states from <AA,BB:AA,BB> singles matrix:
 ***********************************************************************
 
 Ground to excited state transition densities written to RWF  633
 Ground to excited state transition electric dipole moments (Au):
       state          X           Y           Z        Dip. S.      Osc.
         1        -0.8167      0.0457     -0.0099      0.6692      0.0376
         2         0.0836     -0.2372     -0.0413      0.0649      0.0037
         3        -0.3799     -0.8827     -0.0096      0.9235      0.0596
         4        -1.8247     -0.7503     -0.0351      3.8938      0.2626
         5         0.1178     -0.1930     -0.0067      0.0512      0.0037
         6         0.7607     -0.9978     -0.0394      1.5759      0.1152
         7         1.8093      1.4987      0.0569      5.5229      0.4255
         8        -1.7222      1.1527      0.0114      4.2950      0.3337
         9         1.1168     -2.2499     -0.0478      6.3117      0.4926
        10         0.4283      1.7689      0.0685      3.3170      0.2641
        11         0.6087      0.0201      0.0030      0.3709      0.0303
        12        -0.0591      0.0884      0.0053      0.0113      0.0009
        13        -0.1584      0.1930      0.0065      0.0624      0.0052
        14         0.4257     -0.0954      0.0197      0.1907      0.0163
        15         0.1793     -0.0031      0.0050      0.0322      0.0027
        16         0.7703      0.1087      0.0415      0.6068      0.0529
        17         0.3491      0.0213     -0.0263      0.1231      0.0108
        18         0.2202      0.0368      0.0161      0.0501      0.0044
        19         0.4537      0.6137      0.0162      0.5827      0.0519
        20        -0.1584     -0.8226      0.0057      0.7018      0.0626
        21         0.0797     -0.0118     -0.0952      0.0156      0.0014
        22        -0.0972     -0.2055     -0.0058      0.0517      0.0047
        23         0.0497     -0.6329      0.0426      0.4048      0.0375
        24        -0.1651      0.0758      0.0368      0.0344      0.0032
        25        -0.0040      0.3018      0.0584      0.0945      0.0088
        26        -0.1113     -0.7086     -0.0644      0.5187      0.0485
        27         0.1152      0.1513     -0.0253      0.0368      0.0036
        28         0.3570     -0.0388      0.0690      0.1337      0.0131
        29        -0.1321     -0.2835      0.0300      0.0987      0.0097
        30         0.3142     -0.4506     -0.0096      0.3019      0.0296
        31        -0.0245      0.1854     -0.0218      0.0354      0.0035
        32         0.0714      0.0121      0.0204      0.0057      0.0006
        33        -0.3460     -0.3730     -0.0411      0.2606      0.0258
        34         0.0624      0.3030      0.0144      0.0959      0.0095
        35        -0.3016     -0.2690     -0.0332      0.1644      0.0164
        36        -0.1646      0.0413     -0.0041      0.0288      0.0029
        37         0.1551     -0.7189     -0.0357      0.5421      0.0549
        38         0.2939      0.0179     -0.0026      0.0867      0.0088
        39         0.0832      0.0875      0.0068      0.0146      0.0015
        40        -0.4649      0.2560      0.0257      0.2823      0.0289
        41         0.1536     -0.0782      0.0242      0.0303      0.0031
        42        -0.3063     -0.2278     -0.0695      0.1506      0.0156
        43         0.1282      0.5513     -0.0135      0.3205      0.0332
        44         0.0325     -0.0947     -0.0014      0.0100      0.0011
        45        -0.1367      0.1474      0.0002      0.0404      0.0042
        46        -0.0082     -0.2763     -0.0213      0.0769      0.0081
        47        -0.1973     -0.1043      0.0447      0.0518      0.0055
        48        -0.3966     -0.2680      0.0182      0.2294      0.0244
        49         0.2429      0.2090     -0.0008      0.1027      0.0110
        50         0.2050      0.3261      0.0992      0.1582      0.0171
        51         0.1153      0.0746      0.0464      0.0210      0.0023
        52        -0.7155     -0.0670     -0.0446      0.5185      0.0564
        53         0.3675     -0.2852     -0.0101      0.2164      0.0236
        54        -0.0138     -0.7083     -0.0013      0.5018      0.0550
        55         0.2926      0.6764      0.0709      0.5481      0.0602
        56        -0.1288     -0.0948     -0.0607      0.0293      0.0032
        57        -0.3158     -0.0489      0.0036      0.1021      0.0113
        58         0.1051     -0.6338      0.0075      0.4128      0.0460
        59        -0.0408      0.2583      0.0077      0.0684      0.0077
        60        -0.2160      0.4425      0.0024      0.2424      0.0275
        61         0.0075     -0.0382      0.0095      0.0016      0.0002
        62         0.1119      0.0102      0.0215      0.0131      0.0015
        63        -0.0399     -0.0705      0.0022      0.0066      0.0008
        64        -0.0048     -0.1463     -0.0023      0.0214      0.0025
        65         0.0681      0.1492     -0.0143      0.0271      0.0031
        66         0.1271     -0.2068     -0.0012      0.0589      0.0068
        67        -0.3471      0.3105      0.0091      0.2170      0.0251
        68        -0.3394      0.0783      0.0140      0.1215      0.0141
        69         0.1386      0.4118      0.0141      0.1890      0.0223
        70        -0.4329      0.1786      0.0280      0.2201      0.0262
        71         0.1037      0.4425     -0.0079      0.2066      0.0247
        72        -0.0003     -0.0450      0.0090      0.0021      0.0003
        73        -0.0969      0.8594      0.0499      0.7505      0.0904
        74         0.0052      0.5943     -0.0730      0.3586      0.0432
        75         0.0246     -0.2299      0.0016      0.0535      0.0064
 Ground to excited state transition velocity dipole moments (Au):
       state          X           Y           Z        Dip. S.      Osc.
         1         0.0656     -0.0037      0.0004      0.0043      0.0342
         2        -0.0077      0.0205      0.0030      0.0005      0.0038
         3         0.0347      0.0803     -0.0006      0.0076      0.0527
         4         0.1799      0.0740      0.0015      0.0378      0.2493
         5        -0.0118      0.0201      0.0008      0.0005      0.0033
         6        -0.0816      0.1048      0.0034      0.0176      0.1072
         7        -0.2012     -0.1667     -0.0053      0.0683      0.3939
         8         0.1927     -0.1292     -0.0022      0.0538      0.3079
         9        -0.1252      0.2533      0.0027      0.0798      0.4546
        10        -0.0493     -0.2043     -0.0068      0.0442      0.2468
        11        -0.0738     -0.0029     -0.0009      0.0054      0.0297
        12         0.0074     -0.0105     -0.0001      0.0002      0.0009
        13         0.0186     -0.0231     -0.0011      0.0009      0.0047
        14        -0.0511      0.0117     -0.0025      0.0028      0.0144
        15        -0.0209      0.0006      0.0002      0.0004      0.0023
        16        -0.0978     -0.0134     -0.0053      0.0098      0.0498
        17        -0.0445     -0.0023      0.0050      0.0020      0.0101
        18        -0.0282     -0.0036     -0.0038      0.0008      0.0042
        19        -0.0598     -0.0782     -0.0017      0.0097      0.0483
        20         0.0191      0.1043     -0.0009      0.0112      0.0560
        21        -0.0118      0.0015      0.0127      0.0003      0.0015
        22         0.0135      0.0265      0.0035      0.0009      0.0044
        23        -0.0093      0.0870     -0.0062      0.0077      0.0369
        24         0.0225     -0.0089     -0.0085      0.0007      0.0031
        25         0.0019     -0.0421     -0.0083      0.0018      0.0088
        26         0.0129      0.0977      0.0075      0.0098      0.0464
        27        -0.0158     -0.0202      0.0017      0.0007      0.0030
        28        -0.0500      0.0050     -0.0107      0.0026      0.0120
        29         0.0196      0.0398     -0.0098      0.0021      0.0094
        30        -0.0447      0.0622     -0.0007      0.0059      0.0266
        31         0.0042     -0.0261      0.0041      0.0007      0.0032
        32        -0.0092     -0.0022     -0.0006      0.0001      0.0004
        33         0.0480      0.0549      0.0054      0.0053      0.0240
        34        -0.0070     -0.0434     -0.0013      0.0019      0.0086
        35         0.0429      0.0384      0.0065      0.0033      0.0149
        36         0.0231     -0.0065      0.0006      0.0006      0.0025
        37        -0.0236      0.1092      0.0027      0.0125      0.0547
        38        -0.0424     -0.0039      0.0031      0.0018      0.0080
        39        -0.0113     -0.0115     -0.0005      0.0003      0.0011
        40         0.0651     -0.0375     -0.0039      0.0057      0.0246
        41        -0.0216      0.0111     -0.0020      0.0006      0.0026
        42         0.0464      0.0370      0.0099      0.0036      0.0155
        43        -0.0172     -0.0842      0.0036      0.0074      0.0318
        44        -0.0042      0.0120     -0.0015      0.0002      0.0007
        45         0.0202     -0.0221     -0.0028      0.0009      0.0038
        46        -0.0022      0.0424      0.0023      0.0018      0.0076
        47         0.0338      0.0169     -0.0032      0.0014      0.0061
        48         0.0625      0.0399     -0.0049      0.0055      0.0231
        49        -0.0370     -0.0333      0.0045      0.0025      0.0104
        50        -0.0332     -0.0506     -0.0140      0.0039      0.0159
        51        -0.0199     -0.0143     -0.0094      0.0007      0.0028
        52         0.1112      0.0096      0.0068      0.0125      0.0511
        53        -0.0572      0.0453     -0.0034      0.0053      0.0217
        54         0.0037      0.1153     -0.0016      0.0133      0.0540
        55        -0.0530     -0.1103     -0.0122      0.0151      0.0612
        56         0.0192      0.0187      0.0098      0.0008      0.0033
        57         0.0498      0.0093      0.0052      0.0026      0.0104
        58        -0.0174      0.1056      0.0014      0.0115      0.0457
        59         0.0080     -0.0435     -0.0005      0.0020      0.0078
        60         0.0344     -0.0732     -0.0013      0.0065      0.0256
        61         0.0047      0.0055     -0.0004      0.0001      0.0002
        62        -0.0208     -0.0010     -0.0080      0.0005      0.0019
        63        -0.0009      0.0110      0.0004      0.0001      0.0005
        64         0.0004      0.0259      0.0006      0.0007      0.0026
        65        -0.0116     -0.0247      0.0043      0.0008      0.0029
        66        -0.0211      0.0276      0.0005      0.0012      0.0047
        67         0.0602     -0.0559     -0.0028      0.0068      0.0260
        68         0.0566     -0.0151     -0.0008      0.0034      0.0132
        69        -0.0225     -0.0718     -0.0037      0.0057      0.0214
        70         0.0751     -0.0289     -0.0101      0.0066      0.0245
        71        -0.0183     -0.0770     -0.0075      0.0063      0.0235
        72         0.0000      0.0083     -0.0021      0.0001      0.0003
        73         0.0152     -0.1504     -0.0090      0.0229      0.0846
        74        -0.0018     -0.1040      0.0132      0.0110      0.0405
        75        -0.0042      0.0399      0.0018      0.0016      0.0059
 Ground to excited state transition magnetic dipole moments (Au):
       state          X           Y           Z
         1         0.0085     -0.0001     -0.8355
         2         0.0079     -0.0012     -0.0791
         3         0.0781      0.0232     -0.8444
         4         0.0787      0.0356     -0.8385
         5        -0.0026      0.0441     -0.0242
         6         0.0293     -0.0855      1.2489
         7        -0.0091      0.0191     -0.3527
         8         0.0848     -0.1254      0.2730
         9         0.1172     -0.1018     -0.4653
        10        -0.0923      0.0930     -0.5619
        11         0.0579     -0.0353      0.9304
        12        -0.0235     -0.0893     -0.2596
        13         0.0665     -0.3781     -0.1328
        14        -0.1748     -0.0372      0.0453
        15         0.4255      0.1627     -0.0414
        16        -0.0456      0.0239      0.6141
        17        -0.1783      0.0871      0.0996
        18         0.1336      0.0710      0.1343
        19        -0.0079      0.0196      0.0966
        20        -0.0728     -0.0519      0.1175
        21        -0.1563      0.2086     -0.3045
        22         0.0707      0.0949      0.0696
        23         0.0438      0.0584     -0.2566
        24         0.0114      0.1995      0.0244
        25        -0.0053      0.0784     -0.0379
        26         0.0008     -0.0562      0.1196
        27         0.0943      0.0580     -0.1460
        28        -0.0912     -0.0997      0.0537
        29        -0.2922      0.2191     -0.0713
        30         0.0086      0.1125     -0.1340
        31         0.0594      0.0022      0.0076
        32        -0.0166     -0.0486      0.0874
        33         0.1486     -0.0231      0.0558
        34         0.0055     -0.0052     -0.1265
        35         0.0411     -0.1316      0.1680
        36         0.0466     -0.0002     -0.0115
        37         0.1475     -0.0701     -0.0116
        38         0.0682      0.0612     -0.0453
        39        -0.0249     -0.0341      0.1211
        40        -0.0710     -0.1016     -0.2078
        41        -0.0472     -0.0386      0.0456
        42        -0.0891     -0.1139      0.0093
        43        -0.2270     -0.0185      0.2356
        44        -0.0044      0.0137     -0.0576
        45         0.0199      0.0334     -0.0641
        46         0.0620      0.0207     -0.1043
        47         0.0426      0.0246     -0.1394
        48         0.1285      0.0201     -0.1551
        49        -0.0091      0.0176      0.1064
        50         0.1760      0.1089     -0.1300
        51         0.0115      0.1945     -0.0544
        52         0.0095     -0.1118      0.3132
        53        -0.0205     -0.1397      1.1138
        54        -0.0229     -0.0672      0.1333
        55        -0.2465      0.0818      0.1583
        56         0.0143      0.0689     -0.0548
        57         0.0086      0.1773      0.6293
        58         0.0308      0.0150     -0.0609
        59        -0.0018     -0.0086      0.4719
        60         0.0637     -0.0481      0.2693
        61        -0.0001      0.0120     -0.0301
        62         0.0152     -0.0891     -0.1496
        63        -0.0121      0.0020     -0.0432
        64         0.0270     -0.0328      0.0489
        65        -0.0596      0.0530      0.0988
        66        -0.0011     -0.0097      0.0361
        67        -0.0166     -0.0061     -0.6541
        68         0.0360     -0.0018      0.0793
        69        -0.1178      0.0270      0.0725
        70         0.0538      0.1016     -0.3912
        71         0.0657      0.1011      0.1802
        72        -0.0216     -0.2464     -0.0229
        73        -0.1648     -0.0143      0.2755
        74        -0.4186      0.1105     -0.2724
        75         0.0504      0.1883     -0.0306
 Ground to excited state transition velocity quadrupole moments (Au):
       state          XX          YY          ZZ          XY          XZ          YZ
         1         0.0648      0.0539      0.0023      0.1023      0.0237     -0.0127
         2         0.0986     -0.2800     -0.0157     -0.0115      0.0212     -0.0109
         3         0.1029     -0.2664      0.0142     -0.3596      0.0021      0.0046
         4        -0.1229     -0.7822     -0.0045     -0.9411     -0.0051     -0.0040
         5         0.0366     -0.0595      0.0004      0.0368     -0.0013     -0.0075
         6         0.1736     -0.4701     -0.0119      0.3981      0.0195     -0.0493
         7        -0.0099     -0.2475     -0.0330      0.3265     -0.0088     -0.0208
         8         0.1251      0.1380      0.0023     -0.4380     -0.0126      0.0517
         9        -0.1362     -0.1998      0.0136      0.1644      0.0061     -0.0542
        10         0.1305      0.4260      0.0004     -0.0896     -0.0212      0.0505
        11        -0.1354     -0.6298     -0.0121     -0.0308     -0.0107     -0.0387
        12         0.0233      0.2228      0.0032     -0.0622     -0.0251      0.0165
        13         0.0019     -0.0433     -0.0016     -0.1214     -0.0042     -0.0028
        14        -0.0042      0.2158      0.0074     -0.2809     -0.0176      0.0262
        15        -0.0077      0.0913     -0.0007     -0.0857     -0.0023     -0.0114
        16        -0.0753      0.3082      0.0057     -0.2945     -0.0138      0.0458
        17         0.0624      0.0840      0.0010     -0.0414     -0.0398     -0.0409
        18         0.0488      0.0345      0.0015     -0.0177     -0.0100      0.0131
        19         0.4310     -0.1787      0.0057      0.0213     -0.0004      0.0163
        20        -1.1619      1.1908     -0.0050      0.0354     -0.0192     -0.0040
        21         0.0304      0.1727     -0.0015      0.1482     -0.1197     -0.0926
        22        -0.2572      0.1492      0.0034     -0.0620     -0.0631      0.0566
        23        -0.1544     -0.2936     -0.0051     -1.3583     -0.0556     -0.0163
        24         0.2259     -0.3088     -0.0172      0.4881     -0.1002     -0.0188
        25        -0.1251      0.5143      0.0038     -0.0470     -0.0685      0.0362
        26        -0.0970     -0.2545     -0.0169      0.5235      0.0244     -0.0585
        27         1.0341     -0.6309      0.0243     -0.3475     -0.0146     -0.0042
        28        -0.1238      0.1823     -0.0001      0.0611     -0.0386     -0.0830
        29        -0.0626     -0.1425      0.0011     -0.1648      0.0000     -0.1137
        30        -0.3374      0.1893     -0.0016     -0.3248     -0.0569      0.0708
        31         0.4637     -0.2215      0.0058      0.1167      0.0016      0.0015
        32        -0.0181      0.1861      0.0056      0.2586     -0.0061     -0.0347
        33         0.6834     -0.6843      0.0201     -0.4335      0.0396      0.0105
        34        -0.2518      0.6001      0.0025      0.0477     -0.0090      0.0255
        35         0.7620      0.0230      0.0253      0.3588      0.0852     -0.0594
        36         0.5831     -0.3041      0.0108     -0.0970      0.0225     -0.0164
        37         0.0011     -0.7060     -0.0170      0.4829      0.0319     -0.0337
        38         0.5935     -0.0043      0.0229     -0.0473     -0.0515     -0.0068
        39        -0.0206      0.5259      0.0156      0.0104     -0.0344      0.0241
        40        -0.0579      0.4739      0.0160     -0.7915     -0.0037     -0.0174
        41        -0.4740      1.5773      0.0211      0.0145     -0.0320     -0.0011
        42        -0.2667      0.0575     -0.0238     -0.1696      0.0270     -0.0756
        43         0.3284      1.0688      0.0159      0.5734      0.0170     -0.0275
        44         0.0071      0.4301      0.0234      0.0678     -0.0681      0.0097
        45         0.0310     -0.0331     -0.0030     -0.1582     -0.0360      0.0271
        46        -0.1118     -0.3521     -0.0086     -0.1058     -0.0260     -0.0030
        47        -0.0390     -0.1400     -0.0056     -0.5166     -0.0541      0.0240
        48         0.1105     -0.3773      0.0285     -0.2278      0.0123      0.0841
        49         0.2032      0.1827      0.0118      0.0970      0.0049      0.0452
        50        -0.0832     -0.0495      0.0166      0.1519     -0.0873      0.1268
        51         0.1894     -0.1666      0.0004     -0.2051     -0.1147     -0.0136
        52        -0.1608      0.2412     -0.0115      1.4590      0.0530      0.0310
        53         0.0743     -0.4705     -0.0058     -0.1978     -0.0032     -0.0437
        54         0.0661     -0.9593     -0.0195      0.2080      0.0306     -0.1313
        55        -0.0385      0.9570      0.0237     -0.1581     -0.0418     -0.0344
        56        -0.0984      0.0764     -0.0059      0.2492     -0.0448      0.0028
        57        -0.0339      0.0732      0.0000     -0.2968     -0.0078      0.0276
        58        -0.0084     -0.0748      0.0085      0.0540     -0.0199      0.0116
        59        -0.0455      0.4037      0.0102      0.3997      0.0141      0.0065
        60         0.5499     -0.6003      0.0053      0.2323      0.0338      0.0282
        61        -0.2386     -0.0564     -0.0322     -0.0447     -0.0114      0.0199
        62         0.0733     -0.0608     -0.0127     -0.0336      0.0855      0.0101
        63        -0.0824     -0.0117     -0.0075     -0.0577     -0.0017     -0.0077
        64        -0.0032     -0.2581     -0.0081     -0.1564      0.0451     -0.0118
        65         0.0349      0.1038      0.0023      0.0782     -0.0343     -0.0388
        66        -0.0526      0.2211      0.0304      0.1468     -0.0043     -0.0122
        67        -0.0564      0.3568      0.0146     -0.2287      0.0039      0.0477
        68        -0.3091     -0.0388     -0.0124     -0.5257     -0.0299      0.0190
        69         0.0774      0.3313      0.0052      0.2054     -0.0266     -0.0514
        70        -0.0787      0.0328      0.0177     -1.7732     -0.0216      0.0637
        71         0.1815      0.4782      0.0077      0.6379      0.0069     -0.0045
        72         0.0098     -0.0272      0.0010     -0.0947      0.0250     -0.0027
        73         0.2011      1.9042      0.0288      0.2583      0.0226      0.0958
        74         0.3234      1.5046      0.0261      0.2236     -0.0887     -0.1026
        75        -0.1063     -0.3955     -0.0120     -0.0593      0.0160     -0.0114
 <0|del|b> * <b|rxdel|0> + <0|del|b> * <b|delr+rdel|0>
 Rotatory Strengths (R) in cgs (10**-40 erg-esu-cm/Gauss)
       state          XX          YY          ZZ    R(velocity)    E-M Angle
         1        -0.7360     -2.5604      5.4801      0.7279       89.73
         2        -3.0421     -0.7526      1.1045     -0.8967      100.61
         3         8.6661     11.4817     16.7353     12.2944       86.10
         4         1.0509     47.5280     59.8867     36.1552       84.57
         5         3.0059      0.2350      2.6229      1.9546       40.03
         6       -17.6139     14.4887    -42.9592    -15.3614       92.46
         7       -13.7841     29.5474    -12.4918      1.0905       89.67
         8        45.3487     74.9329     73.4272     64.5696       63.84
         9       -85.0132    -28.9310   -138.0706    -84.0049      107.52
        10       -55.9912     15.5813    -22.6333    -21.0144       95.04
        11        -2.1208     -6.5685    -20.1856     -9.6250       94.16
        12         2.0090     -0.0927      2.5683      1.4949       77.18
        13        25.2854      3.3928     28.7054     19.1279       32.93
        14         1.0281     18.7081     26.6486     15.4616       29.93
        15         0.2106    -23.9345    -24.9948    -16.2395      156.92
        16        -5.9748    -13.1707     23.7814      1.5453       89.19
        17        -0.0148     27.9921     16.0790     14.6854       34.25
        18        -1.9731    -12.6374     -9.6855     -8.0987      141.39
        19        -4.6729     -1.6830     -0.1384     -2.1648       97.24
        20        -9.3881     -4.0706    -23.0570    -12.1719      116.18
        21        -3.8708     -7.3024      2.2686     -2.9682      104.36
        22        10.8603      5.6360      2.6645      6.3870       25.33
        23        50.6615    -18.0086     -0.7876     10.6217       74.47
        24       -17.6575      9.4901     -0.5062     -2.8912      109.46
        25       -13.7886     -0.0402     -1.2478     -5.0255      143.02
        26        -7.5989     -9.5495     -5.9048     -7.6844      110.50
        27        -5.5650     -2.6582     -5.9302     -4.7178      128.10
        28        -3.6883     21.2257     -0.6719      5.6219       62.12
        29        26.5766    -21.4110     12.5591      5.9083       77.44
        30        26.0590     -8.8450     14.9880     10.7340       60.02
        31         1.1679     -0.4505      0.3445      0.3540       82.06
        32        -0.2315      1.3551     -0.1043      0.3398       77.20
        33       -13.0277     24.4294     17.9095      9.7704       58.29
        34        -0.1410      0.0251      1.7917      0.5586       86.36
        35       -11.6002     -4.7681      5.9738     -3.4648      100.07
        36         0.1936      1.7575      3.0725      1.6745       21.60
        37       -22.9729     -9.3354    -19.6622    -17.3235      127.63
        38        -1.6895     -6.0232     -7.4635     -5.0587      138.53
        39        -0.1512     -0.0988      3.1051      0.9517       72.64
        40        17.3495    -18.4654      1.0529     -0.0210       90.00
        41        -0.4380      2.2453      0.4882      0.7652       74.30
        42       -15.4656    -13.3576     -8.7496    -12.5243      161.26
        43        13.5011      7.1718      8.1120      9.5950       77.03
        44         2.1728      0.3723     -1.3344      0.4035       69.28
        45        -2.0570      1.5408     -0.1952     -0.2371       94.03
        46         3.3519     -0.2811     -0.8237      0.7490       84.47
        47         7.6775      2.3060      0.2895      3.4244       65.73
        48         4.8200     28.6784      9.0064     14.1683       50.39
        49         1.0874     -2.8404      2.7625      0.3365       87.57
        50       -22.3473    -13.2805     -5.9481    -13.8586      128.85
        51        -4.3353     -2.9769     -3.5660     -3.6261      118.13
        52        22.5471     -7.0365     -6.3896      3.0403       86.76
        53       -20.0278     -1.6718    -16.8195    -12.8397       96.25
        54       -25.4455     -0.9789     -8.2042    -11.5429      117.53
        55       -29.2707     23.7139     14.6775      3.0402       86.74
        56         8.5894     -5.6438      1.4309      1.4588       66.24
        57         7.2910     13.9517      1.3335      7.5254       80.81
        58         7.7838     -1.9004     -1.7841      1.3664       82.57
        59         1.2041      0.0073     -0.6405      0.1903       89.63
        60        11.1512      6.4747      4.7127      7.4462       76.33
        61         0.3323      0.1798     -0.1885      0.1079       90.00
        62         3.3795      0.8238     -0.2077      1.3319       75.58
        63         0.0027      0.0479      0.0155      0.0220       90.00
        64        -4.2629      0.2509      0.6911     -1.1070      118.85
        65        -2.8370      2.5156     -0.4489     -0.2568       93.08
        66        -0.1056      0.4515     -1.2721     -0.3087      100.06
        67         6.1884      6.2462     -7.6222      1.6041       88.74
        68        -0.0979      5.2952      2.9241      2.7071       66.95
        69        -9.7349      8.5782      2.9342      0.5925       87.60
        70        36.3432    -10.2339     -6.0382      6.6904       81.17
        71       -26.3317      4.5281    -18.9091    -13.5709      126.84
        72        -3.9389     -0.2969     -3.6090     -2.6150      159.77
        73         1.4341     -2.3632    -10.2250     -3.7180       93.36
        74       -41.7665    -10.9149     -3.3015    -18.6610      105.48
        75        13.1181     -0.2152     15.4344      9.4457       23.86
 1/2[<0|r|b>*<b|rxdel|0> + (<0|rxdel|b>*<b|r|0>)*]
 Rotatory Strengths (R) in cgs (10**-40 erg-esu-cm/Gauss)
       state          XX          YY          ZZ     R(length)
         1         4.9315      0.0024     -5.8381     -0.3014
         2        -0.4678     -0.1932     -2.3068     -0.9893
         3        20.9676     14.4805     -5.7307      9.9058
         4       101.5728     18.8946    -20.8088     33.2195
         5         0.2155      6.0181     -0.1144      2.0397
         6       -15.7618    -60.3071     34.8053    -13.7545
         7        11.6471    -20.2390     14.1952      1.8678
         8       103.2871    102.2018     -2.2002     67.7629
         9       -92.5279   -162.0510    -15.7269    -90.1019
        10        27.9410   -116.3869     27.2317    -20.4047
        11       -24.9079      0.5020     -1.9420     -8.7826
        12        -0.9810      5.5771      0.9754      1.8572
        13         7.4457     51.6126      0.6107     19.8897
        14        52.6110     -2.5110     -0.6311     16.4897
        15       -53.9589      0.3535      0.1454    -17.8200
        16        24.8208     -1.8390    -18.0317      1.6500
        17        44.0139     -1.3105      1.8548     14.8527
        18       -20.7925     -1.8489     -1.5308     -8.0574
        19         2.5308     -8.5051     -1.1097     -2.3613
        20        -8.1582    -30.1826     -0.4744    -12.9384
        21         8.8129      1.7456    -20.4991     -3.3135
        22         4.8565     13.7985      0.2870      6.3140
        23        -1.5398     26.1536      7.7289     10.7809
        24         1.3308    -10.6987     -0.6359     -3.3346
        25        -0.0149    -16.7221      1.5676     -5.0565
        26         0.0613    -28.1475      5.4483     -7.5460
        27        -7.6884     -6.2094     -2.6128     -5.5035
        28        23.0279     -2.7344     -2.6210      5.8908
        29       -27.2979     43.9315      1.5143      6.0493
        30        -1.9146     35.8499     -0.9105     11.0083
        31         1.0309     -0.2931      0.1172      0.2850
        32         0.8394      0.4174     -1.2593     -0.0008
        33        36.3551     -6.0926      1.6246     10.6290
        34        -0.2427      1.1175      1.2852      0.7200
        35         8.7676    -25.0332      3.9397     -4.1086
        36         5.4246      0.0065     -0.0338      1.7991
        37       -16.1762    -35.6510     -0.2923    -17.3731
        38       -14.1622     -0.7766     -0.0846     -5.0078
        39         1.4670      2.1105     -0.5809      0.9989
        40       -23.3431     18.3844      3.7812     -0.3925
        41         5.1238     -2.1347     -0.7810      0.7360
        42       -19.2897    -18.3591      0.4587    -12.3967
        43        20.5768      7.2071      2.2415     10.0085
        44         0.1000      0.9158     -0.0579      0.3193
        45         1.9231     -3.4776      0.0101     -0.5148
        46         0.3596      4.0415     -1.5708      0.9434
        47         5.9423      1.8155      4.4049      4.0542
        48        36.0348      3.8089      2.0008     13.9482
        49         1.5608     -2.6062      0.0586     -0.3289
        50       -25.5162    -25.1154      9.1217    -13.8366
        51        -0.9405    -10.2558      1.7837     -3.1375
        52         4.8236     -5.2915      9.8867      3.1396
        53         5.3229    -28.1645      7.9457     -4.9653
        54        -0.2227    -33.6699      0.1223    -11.2568
        55        51.0064    -39.1147     -7.9354      1.3188
        56         1.3033      4.6236     -2.3523      1.1915
        57         1.9143      6.1360     -1.5845      2.1553
        58        -2.2901      6.7434      0.3227      1.5920
        59        -0.0519      1.5766     -2.5843     -0.3532
        60         9.7288     15.0592     -0.4504      8.1125
        61         0.0006      0.3237      0.2024      0.1756
        62        -1.1998      0.6427      2.2719      0.5716
        63        -0.3427      0.1003      0.0664     -0.0587
        64         0.0925     -3.3900      0.0778     -1.0732
        65         2.8674     -5.5912      0.9987     -0.5750
        66         0.0977     -1.4255      0.0298     -0.4327
        67        -4.0645      1.3377      4.2290      0.5007
        68         8.6427      0.0983     -0.7881      2.6510
        69        11.5460     -7.8486     -0.7254      0.9907
        70        16.4763    -12.8273      7.7592      3.8027
        71        -4.8207    -31.6450      1.0054    -11.8201
        72        -0.0048     -7.8372      0.1448     -2.5657
        73       -11.2986      8.6736     -9.7241     -4.1164
        74         1.5377    -46.4216    -14.0623    -19.6488
        75        -0.8770     30.6124      0.0336      9.9230
  1/2[<0|del|b>*<b|r|0> + (<0|r|b>*<b|del|0>)*] (Au)
       state          X           Y           Z        Dip. S.   Osc.(frdel)
         1        -0.0536     -0.0002      0.0000      0.0538      0.0359
         2        -0.0006     -0.0049     -0.0001      0.0056      0.0038
         3        -0.0132     -0.0709      0.0000      0.0840      0.0560
         4        -0.3282     -0.0555     -0.0001      0.3838      0.2559
         5        -0.0014     -0.0039      0.0000      0.0053      0.0035
         6        -0.0621     -0.1045     -0.0001      0.1667      0.1111
         7        -0.3640     -0.2498     -0.0003      0.6141      0.4094
         8        -0.3318     -0.1490      0.0000      0.4808      0.3205
         9        -0.1398     -0.5699     -0.0001      0.7098      0.4732
        10        -0.0211     -0.3614     -0.0005      0.3830      0.2553
        11        -0.0449     -0.0001      0.0000      0.0450      0.0300
        12        -0.0004     -0.0009      0.0000      0.0014      0.0009
        13        -0.0029     -0.0045      0.0000      0.0074      0.0049
        14        -0.0218     -0.0011     -0.0001      0.0229      0.0153
        15        -0.0038      0.0000      0.0000      0.0038      0.0025
        16        -0.0753     -0.0015     -0.0002      0.0770      0.0513
        17        -0.0155      0.0000     -0.0001      0.0157      0.0105
        18        -0.0062     -0.0001     -0.0001      0.0064      0.0043
        19        -0.0271     -0.0480      0.0000      0.0751      0.0501
        20        -0.0030     -0.0858      0.0000      0.0888      0.0592
        21        -0.0009      0.0000     -0.0012      0.0022      0.0014
        22        -0.0013     -0.0055      0.0000      0.0068      0.0045
        23        -0.0005     -0.0551     -0.0003      0.0558      0.0372
        24        -0.0037     -0.0007     -0.0003      0.0047      0.0031
        25         0.0000     -0.0127     -0.0005      0.0132      0.0088
        26        -0.0014     -0.0692     -0.0005      0.0712      0.0474
        27        -0.0018     -0.0031      0.0000      0.0049      0.0033
        28        -0.0179     -0.0002     -0.0007      0.0188      0.0125
        29        -0.0026     -0.0113     -0.0003      0.0142      0.0094
        30        -0.0140     -0.0280      0.0000      0.0420      0.0280
        31        -0.0001     -0.0048     -0.0001      0.0050      0.0034
        32        -0.0007      0.0000      0.0000      0.0007      0.0005
        33        -0.0166     -0.0205     -0.0002      0.0373      0.0249
        34        -0.0004     -0.0132      0.0000      0.0136      0.0091
        35        -0.0129     -0.0103     -0.0002      0.0235      0.0156
        36        -0.0038     -0.0003      0.0000      0.0041      0.0027
        37        -0.0037     -0.0785     -0.0001      0.0822      0.0548
        38        -0.0125     -0.0001      0.0000      0.0125      0.0084
        39        -0.0009     -0.0010      0.0000      0.0019      0.0013
        40        -0.0303     -0.0096     -0.0001      0.0400      0.0266
        41        -0.0033     -0.0009      0.0000      0.0042      0.0028
        42        -0.0142     -0.0084     -0.0007      0.0233      0.0155
        43        -0.0022     -0.0464      0.0000      0.0487      0.0325
        44        -0.0001     -0.0011      0.0000      0.0013      0.0008
        45        -0.0028     -0.0033      0.0000      0.0060      0.0040
        46         0.0000     -0.0117      0.0000      0.0117      0.0078
        47        -0.0067     -0.0018     -0.0001      0.0086      0.0057
        48        -0.0248     -0.0107     -0.0001      0.0356      0.0237
        49        -0.0090     -0.0070      0.0000      0.0159      0.0106
        50        -0.0068     -0.0165     -0.0014      0.0247      0.0165
        51        -0.0023     -0.0011     -0.0004      0.0038      0.0025
        52        -0.0795     -0.0006     -0.0003      0.0805      0.0537
        53        -0.0210     -0.0129      0.0000      0.0339      0.0226
        54        -0.0001     -0.0817      0.0000      0.0817      0.0545
        55        -0.0155     -0.0746     -0.0009      0.0910      0.0607
        56        -0.0025     -0.0018     -0.0006      0.0048      0.0032
        57        -0.0157     -0.0005      0.0000      0.0162      0.0108
        58        -0.0018     -0.0669      0.0000      0.0688      0.0458
        59        -0.0003     -0.0112      0.0000      0.0116      0.0077
        60        -0.0074     -0.0324      0.0000      0.0398      0.0265
        61         0.0000     -0.0002      0.0000      0.0002      0.0001
        62        -0.0023      0.0000     -0.0002      0.0025      0.0017
        63         0.0000     -0.0008      0.0000      0.0007      0.0005
        64         0.0000     -0.0038      0.0000      0.0038      0.0025
        65        -0.0008     -0.0037     -0.0001      0.0045      0.0030
        66        -0.0027     -0.0057      0.0000      0.0084      0.0056
        67        -0.0209     -0.0174      0.0000      0.0383      0.0255
        68        -0.0192     -0.0012      0.0000      0.0204      0.0136
        69        -0.0031     -0.0296     -0.0001      0.0327      0.0218
        70        -0.0325     -0.0052     -0.0003      0.0379      0.0253
        71        -0.0019     -0.0341      0.0001      0.0359      0.0240
        72         0.0000     -0.0004      0.0000      0.0004      0.0003
        73        -0.0015     -0.1292     -0.0004      0.1312      0.0875
        74         0.0000     -0.0618     -0.0010      0.0628      0.0419
        75        -0.0001     -0.0092      0.0000      0.0093      0.0062

 Excitation energies and oscillator strengths:
 
 Excited State   1:      Singlet-A      2.2919 eV  540.96 nm  f=0.0376  <S**2>=0.000
     253 -> 257        0.15606
     254 -> 257       -0.34917
     255 -> 256        0.58419
 This state for optimization and/or second-order correction.
 Total Energy, E(TD-HF/TD-DFT) =  -4475.44517654    
[...]
 Alpha virt. eigenvalues --    0.28979   0.29372   0.30426   0.30548   0.31373
 Alpha virt. eigenvalues --    0.31717   0.32174   0.32424   0.32841   0.33089
 Alpha virt. eigenvalues --    0.33246   0.33797   0.34303   0.35016   0.35268
 Alpha virt. eigenvalues --    0.35493   0.36335   0.36720   0.37032   0.37308
 Alpha virt. eigenvalues --    0.37519   0.38036   0.38141   0.38186   0.38377
 Alpha virt. eigenvalues --    0.38796   0.39129   0.39932   0.40192   0.40332
 Alpha virt. eigenvalues --    0.41505   0.41900   0.42686   0.43318   0.43468
 Alpha virt. eigenvalues --    0.43780   0.44027   0.44261   0.44442   0.45194
 Alpha virt. eigenvalues --    0.45450   0.45939   0.46263   0.46357   0.46664
 Alpha virt. eigenvalues --    0.46867   0.47122   0.47289   0.47442   0.47867
 Alpha virt. eigenvalues --    0.48186   0.48946   0.49308   0.49746   0.49813
 Alpha virt. eigenvalues --    0.50251   0.50703   0.50904   0.51099   0.51234
 Alpha virt. eigenvalues --    0.51349   0.51443   0.51757   0.51816   0.51879
 Alpha virt. eigenvalues --    0.52033   0.52493   0.52967   0.53069   0.53089
 Alpha virt. eigenvalues --    0.53639   0.53899   0.54034   0.54575   0.54725
 Alpha virt. eigenvalues --    0.54942   0.54965   0.55359   0.55661   0.56100
 Alpha virt. eigenvalues --    0.56248   0.56411   0.56625   0.56801   0.56886
 Alpha virt. eigenvalues --    0.57178   0.57266   0.57528   0.57844   0.58238
 Alpha virt. eigenvalues --    0.58334   0.58662   0.58809   0.58886   0.59823
 Alpha virt. eigenvalues --    0.60228   0.60584   0.60711   0.60923   0.61145
 Alpha virt. eigenvalues --    0.61493   0.61772   0.62128   0.62217   0.62534
 Alpha virt. eigenvalues --    0.62831   0.63137   0.63201   0.63397   0.63918
 Alpha virt. eigenvalues --    0.64065   0.64475   0.64546   0.65148   0.65269
 Alpha virt. eigenvalues --    0.65319   0.65685   0.65791   0.66019   0.66128
 Alpha virt. eigenvalues --    0.66274   0.66314   0.67021   0.67807   0.68326
 Alpha virt. eigenvalues --    0.69274   0.69590   0.70046   0.70650   0.71732
 Alpha virt. eigenvalues --    0.72317   0.72822   0.73198   0.73751   0.74411
 Alpha virt. eigenvalues --    0.74791   0.74866   0.75210   0.75398   0.75966
 Alpha virt. eigenvalues --    0.76674   0.77058   0.77384   0.78129   0.78362
 Alpha virt. eigenvalues --    0.78914   0.79310   0.79643   0.80160   0.80605
 Alpha virt. eigenvalues --    0.80816   0.80959   0.81300   0.81493   0.81607
 Alpha virt. eigenvalues --    0.81798   0.82149   0.82243   0.82559   0.82644
 Alpha virt. eigenvalues --    0.83168   0.83428   0.83647   0.84152   0.84400
 Alpha virt. eigenvalues --    0.84757   0.84863   0.85201   0.85565   0.86112
 Alpha virt. eigenvalues --    0.86210   0.86567   0.86836   0.86882   0.87459
 Alpha virt. eigenvalues --    0.88196   0.88498   0.88911   0.89440   0.89836
 Alpha virt. eigenvalues --    0.90110   0.90331   0.90503   0.90855   0.91350
 Alpha virt. eigenvalues --    0.91941   0.92385   0.93238   0.93338   0.93783
 Alpha virt. eigenvalues --    0.94178   0.94456   0.94882   0.95105   0.95531
 Alpha virt. eigenvalues --    0.96013   0.96613   0.97146   0.97415   0.97613
 Alpha virt. eigenvalues --    0.98578   0.99168   0.99457   0.99871   1.00525
 Alpha virt. eigenvalues --    1.00845   1.01272   1.01597   1.02336   1.03992
 Alpha virt. eigenvalues --    1.04394   1.04707   1.04962   1.05368   1.05766
 Alpha virt. eigenvalues --    1.06203   1.06579   1.06948   1.07673   1.07788
 Alpha virt. eigenvalues --    1.08220   1.09497   1.10420   1.10582   1.11017
 Alpha virt. eigenvalues --    1.11178   1.11396   1.11695   1.12114   1.12538
 Alpha virt. eigenvalues --    1.12944   1.13506   1.14097   1.14510   1.14697
 Alpha virt. eigenvalues --    1.14850   1.15579   1.16061   1.17117   1.17374
 Alpha virt. eigenvalues --    1.17578   1.18432   1.18611   1.18945   1.19121
 Alpha virt. eigenvalues --    1.19469   1.19759   1.20307   1.20450   1.20856
 Alpha virt. eigenvalues --    1.21076   1.21385   1.21572   1.21874   1.22018
 Alpha virt. eigenvalues --    1.22176   1.22402   1.22609   1.22832   1.22900
 Alpha virt. eigenvalues --    1.23036   1.23261   1.23413   1.23549   1.23739
 Alpha virt. eigenvalues --    1.24040   1.24649   1.24884   1.25287   1.25816
 Alpha virt. eigenvalues --    1.26344   1.27194   1.27593   1.27698   1.28481
 Alpha virt. eigenvalues --    1.28795   1.29344   1.29597   1.29865   1.30052
 Alpha virt. eigenvalues --    1.30430   1.30692   1.30961   1.31130   1.31183
 Alpha virt. eigenvalues --    1.31542   1.32482   1.32864   1.33411   1.33569
 Alpha virt. eigenvalues --    1.33799   1.34146   1.34559   1.34772   1.34921
 Alpha virt. eigenvalues --    1.35442   1.35709   1.36000   1.36307   1.36796
 Alpha virt. eigenvalues --    1.37080   1.37217   1.37376   1.37736   1.38113
 Alpha virt. eigenvalues --    1.38244   1.38418   1.38543   1.38599   1.39349
 Alpha virt. eigenvalues --    1.39559   1.39790   1.39871   1.40292   1.40793
 Alpha virt. eigenvalues --    1.41062   1.41173   1.41677   1.41865   1.41997
 Alpha virt. eigenvalues --    1.42693   1.42806   1.43468   1.43834   1.44036
 Alpha virt. eigenvalues --    1.44521   1.44717   1.44930   1.45034   1.45160
 Alpha virt. eigenvalues --    1.46058   1.46306   1.46570   1.46827   1.47019
 Alpha virt. eigenvalues --    1.47596   1.48106   1.49578   1.50192   1.51547
 Alpha virt. eigenvalues --    1.51896   1.52537   1.53379   1.53760   1.54097
 Alpha virt. eigenvalues --    1.54466   1.55654   1.56311   1.57485   1.57952
 Alpha virt. eigenvalues --    1.59768   1.60648   1.61298   1.61611   1.62539
 Alpha virt. eigenvalues --    1.62675   1.63268   1.63414   1.63870   1.63946
 Alpha virt. eigenvalues --    1.64719   1.64724   1.65035   1.65979   1.66274
 Alpha virt. eigenvalues --    1.66307   1.67526   1.68309   1.69224   1.69541
 Alpha virt. eigenvalues --    1.69970   1.70147   1.70282   1.71229   1.71396
 Alpha virt. eigenvalues --    1.71663   1.71857   1.72133   1.73146   1.74163
 Alpha virt. eigenvalues --    1.74551   1.74660   1.75169   1.75336   1.75579
 Alpha virt. eigenvalues --    1.75950   1.76015   1.76067   1.76252   1.76327
 Alpha virt. eigenvalues --    1.76378   1.76509   1.76567   1.76638   1.76795
 Alpha virt. eigenvalues --    1.76875   1.76997   1.77372   1.77554   1.77927
 Alpha virt. eigenvalues --    1.78021   1.78116   1.78486   1.78583   1.78813
 Alpha virt. eigenvalues --    1.79599   1.79689   1.80560   1.80934   1.81161
 Alpha virt. eigenvalues --    1.81395   1.81522   1.81662   1.82005   1.82108
 Alpha virt. eigenvalues --    1.82287   1.82938   1.83445   1.83605   1.84105
 Alpha virt. eigenvalues --    1.84753   1.85007   1.85512   1.85546   1.85909
 Alpha virt. eigenvalues --    1.86136   1.86221   1.86292   1.86441   1.86526
 Alpha virt. eigenvalues --    1.86759   1.86936   1.87146   1.87354   1.87744
 Alpha virt. eigenvalues --    1.88434   1.88669   1.89039   1.89979   1.90363
 Alpha virt. eigenvalues --    1.90812   1.90905   1.91916   1.92330   1.92612
 Alpha virt. eigenvalues --    1.93105   1.93523   1.93941   1.94449   1.95368
 Alpha virt. eigenvalues --    1.95517   1.95747   1.96110   1.96268   1.96613
 Alpha virt. eigenvalues --    1.96895   1.96991   1.97497   1.98138   1.99118
 Alpha virt. eigenvalues --    1.99497   2.00712   2.01126   2.01569   2.02538
 Alpha virt. eigenvalues --    2.03113   2.03679   2.03965   2.04555   2.04691
 Alpha virt. eigenvalues --    2.04895   2.05542   2.05710   2.06031   2.06153
 Alpha virt. eigenvalues --    2.06791   2.07278   2.07814   2.08067   2.08239
 Alpha virt. eigenvalues --    2.08957   2.09570   2.10228   2.10747   2.11370
 Alpha virt. eigenvalues --    2.11999   2.12428   2.13514   2.13744   2.13973
 Alpha virt. eigenvalues --    2.15240   2.15555   2.16013   2.16264   2.16461
 Alpha virt. eigenvalues --    2.16592   2.17077   2.17278   2.17753   2.17887
 Alpha virt. eigenvalues --    2.18088   2.18792   2.19190   2.19796   2.19918
 Alpha virt. eigenvalues --    2.20888   2.21169   2.21177   2.21667   2.22724
 Alpha virt. eigenvalues --    2.23478   2.23738   2.23893   2.24268   2.24455
 Alpha virt. eigenvalues --    2.24902   2.24971   2.25655   2.25833   2.26641
 Alpha virt. eigenvalues --    2.26707   2.27265   2.27704   2.28199   2.28244
 Alpha virt. eigenvalues --    2.28757   2.28812   2.29458   2.29539   2.30223
 Alpha virt. eigenvalues --    2.30663   2.31150   2.31590   2.31841   2.32133
 Alpha virt. eigenvalues --    2.32313   2.32561   2.32674   2.33464   2.33620
 Alpha virt. eigenvalues --    2.33793   2.33927   2.34143   2.34691   2.34841
 Alpha virt. eigenvalues --    2.35331   2.35703   2.36214   2.36430   2.36678
 Alpha virt. eigenvalues --    2.36885   2.37073   2.37311   2.38446   2.38642
 Alpha virt. eigenvalues --    2.39322   2.39666   2.39858   2.40050   2.40777
 Alpha virt. eigenvalues --    2.40947   2.41383   2.41622   2.41993   2.42443
 Alpha virt. eigenvalues --    2.43032   2.43280   2.43902   2.44489   2.45175
 Alpha virt. eigenvalues --    2.45642   2.46518   2.46886   2.47551   2.47720
 Alpha virt. eigenvalues --    2.48290   2.48935   2.49673   2.49761   2.49849
 Alpha virt. eigenvalues --    2.50482   2.51026   2.51570   2.51947   2.52256
 Alpha virt. eigenvalues --    2.53039   2.53486   2.54029   2.54428   2.54886
 Alpha virt. eigenvalues --    2.55151   2.55305   2.55461   2.55523   2.56262
 Alpha virt. eigenvalues --    2.56784   2.56822   2.57211   2.57679   2.58114
 Alpha virt. eigenvalues --    2.58422   2.58660   2.59474   2.60525   2.60723
 Alpha virt. eigenvalues --    2.61706   2.61842   2.61922   2.63607   2.63920
 Alpha virt. eigenvalues --    2.64002   2.64799   2.65194   2.66157   2.66514
 Alpha virt. eigenvalues --    2.67506   2.68368   2.68674   2.71025   2.71440
 Alpha virt. eigenvalues --    2.72074   2.72244   2.72397   2.73002   2.73253
 Alpha virt. eigenvalues --    2.73305   2.74318   2.74696   2.74855   2.75110
 Alpha virt. eigenvalues --    2.76058   2.76480   2.77636   2.78354   2.79013
 Alpha virt. eigenvalues --    2.79909   2.80977   2.81129   2.81793   2.82436
 Alpha virt. eigenvalues --    2.83666   2.84961   2.86096   2.86150   2.87542
 Alpha virt. eigenvalues --    2.88862   2.89221   2.90010   2.91071   2.94258
 Alpha virt. eigenvalues --    2.94580   2.94791   2.95020   2.95938   2.97338
 Alpha virt. eigenvalues --    2.97494   2.97818   2.97927   2.98143   2.98431
 Alpha virt. eigenvalues --    2.99147   3.00240   3.00358   3.03947   3.04550
 Alpha virt. eigenvalues --    3.05038   3.05691   3.06941   3.07381   3.08391
 Alpha virt. eigenvalues --    3.08904   3.09378   3.10229   3.10783   3.10882
 Alpha virt. eigenvalues --    3.11176   3.11732   3.12772   3.14633   3.14794
 Alpha virt. eigenvalues --    3.15080   3.15502   3.15688   3.15909   3.16121
 Alpha virt. eigenvalues --    3.18907   3.19549   3.20956   3.23263   3.25323
 Alpha virt. eigenvalues --    3.28591   3.31983   3.34838   3.36267   3.37016
 Alpha virt. eigenvalues --    3.37351   3.37453   3.37859   3.38873   3.39681
 Alpha virt. eigenvalues --    3.42292   3.49268   3.49637   3.49989   3.58624
 Alpha virt. eigenvalues --    3.60309   3.62523   3.74111   3.75594   3.76720
 Alpha virt. eigenvalues --    3.77532  10.31218
          Condensed to atoms (all electrons):
 Mulliken charges:
               1
     1  C    0.287729
     2  C    0.321569
     3  C   -0.106451
     4  C    0.315703
     5  C    0.308906
     6  C    0.083182
     7  C    0.294521
     8  C    0.321756
     9  C   -0.111950
    10  C    0.318949
    11  C   -0.155980
    12  C    0.317919
    13  H    0.111012
    14  H    0.102042
    15  H    0.102185
    16  N   -0.658388
    17  N   -0.660707
    18  N   -0.646110
    19  N   -0.646555
    20  C   -0.112029
    21  H    0.102012
    22  C   -0.133650
    23  H    0.108537
    24  C    0.093626
    25  C   -0.105673
    26  H    0.102975
    27  C    0.216542
    28  C    0.012271
    29  C    0.016041
    30  C    0.002546
    31  C   -0.256752
    32  C    0.350223
    33  C    0.352078
    34  C    0.275170
    35  C    0.275388
    36  C    0.289326
    37  C   -0.252582
    38  C    0.350045
    39  C    0.348908
    40  C    0.274906
    41  C    0.274731
    42  C    0.288897
    43  C   -0.261662
    44  C    0.352756
    45  C    0.355899
    46  C    0.274969
    47  C    0.276070
    48  C    0.289581
    49  C   -0.245872
    50  C   -0.066787
    51  H    0.093488
    52  C   -0.351013
    53  C   -0.050564
    54  H    0.119789
    55  F   -0.284309
    56  F   -0.285716
    57  F   -0.281983
    58  F   -0.285761
    59  F   -0.284300
    60  F   -0.284174
    61  F   -0.285982
    62  F   -0.282330
    63  F   -0.286164
    64  F   -0.285143
    65  F   -0.284888
    66  F   -0.286321
    67  F   -0.282471
    68  F   -0.285630
    69  F   -0.283191
    70  H    0.109861
    71  H    0.094469
    72  C   -0.063575
    73  C   -0.013743
    74  C   -0.287174
    75  H    0.127496
    76  S    0.248877
    77  S    0.282050
    78  C   -0.283269
    79  H    0.139621
    80  Pd   0.544937
    81  O   -0.524362
    82  H    0.333654
 Sum of Mulliken charges =   0.00000
 Mulliken charges with hydrogens summed into heavy atoms:
               1
     1  C    0.287729
     2  C    0.321569
     3  C   -0.004266
     4  C    0.315703
     5  C    0.308906
     6  C    0.083182
     7  C    0.294521
     8  C    0.321756
     9  C   -0.009908
    10  C    0.318949
    11  C   -0.044967
    12  C    0.317919
    16  N   -0.658388
    17  N   -0.660707
    18  N   -0.646110
    19  N   -0.646555
    20  C   -0.010017
    22  C   -0.025113
    24  C    0.093626
    25  C   -0.002699
    27  C    0.216542
    28  C    0.012271
    29  C    0.016041
    30  C    0.002546
    31  C   -0.256752
    32  C    0.350223
    33  C    0.352078
    34  C    0.275170
    35  C    0.275388
    36  C    0.289326
    37  C   -0.252582
    38  C    0.350045
    39  C    0.348908
    40  C    0.274906
    41  C    0.274731
    42  C    0.288897
    43  C   -0.261662
    44  C    0.352756
    45  C    0.355899
    46  C    0.274969
    47  C    0.276070
    48  C    0.289581
    49  C   -0.245872
    50  C    0.027682
    52  C   -0.351013
    53  C    0.059297
    55  F   -0.284309
    56  F   -0.285716
    57  F   -0.281983
    58  F   -0.285761
    59  F   -0.284300
    60  F   -0.284174
    61  F   -0.285982
    62  F   -0.282330
    63  F   -0.286164
    64  F   -0.285143
    65  F   -0.284888
    66  F   -0.286321
    67  F   -0.282471
    68  F   -0.285630
    69  F   -0.283191
    72  C    0.056214
    73  C    0.079745
    74  C   -0.159678
    76  S    0.248877
    77  S    0.282050
    78  C   -0.143648
    80  Pd   0.544937
    81  O   -0.190708
 Electronic spatial extent (au):  <R**2>=          67079.6303
 Charge=              0.0000 electrons
 Dipole moment (field-independent basis, Debye):
    X=              1.7902    Y=             -4.1962    Z=             -1.1391  Tot=              4.7022
 Quadrupole moment (field-independent basis, Debye-Ang):
   XX=           -403.9712   YY=           -356.4963   ZZ=           -414.7067
   XY=            -10.5737   XZ=              1.8482   YZ=             12.8562
 Traceless Quadrupole moment (field-independent basis, Debye-Ang):
   XX=            -12.2464   YY=             35.2284   ZZ=            -22.9820
   XY=            -10.5737   XZ=              1.8482   YZ=             12.8562
 Octapole moment (field-independent basis, Debye-Ang**2):
  XXX=             14.9716  YYY=           -280.3057  ZZZ=             -1.1567  XYY=             60.9824
  XXY=             31.9097  XXZ=             20.8161  XZZ=              9.9425  YZZ=             21.2821
  YYZ=            -54.9984  XYZ=             27.2999
 Hexadecapole moment (field-independent basis, Debye-Ang**3):
 XXXX=         -43964.9261 YYYY=         -35430.4693 ZZZZ=          -3050.1666 XXXY=            103.7250
 XXXZ=            -49.4450 YYYX=           -586.9779 YYYZ=            298.8098 ZZZX=            -26.6572
 ZZZY=            -37.6045 XXYY=         -12056.3509 XXZZ=          -7861.7668 YYZZ=          -6850.8343
 XXYZ=             47.2681 YYXZ=             62.9771 ZZXY=            -36.3633
 N-N= 1.164893893835D+04 E-N=-3.380308870557D+04  KE= 4.372278138262D+03
 Unable to Open any file for archive entry.
 1\1\GINC-CCNN797\SP\RB3LYP TD-FC\GenECP\C46H13F15N4O1Pd1S2\CPI\03-Sep-
 2022\0\\# td=(nstates=75) b3lyp/genecp geom=connectivity scf=maxcyc=10
 00\\title\\0,1\C,0,-1.339465,-2.756887,-0.190146\C,0,1.346644,2.791997
 ,0.018744\C,0,3.568931,2.434468,0.183398\C,0,2.856216,1.179005,0.08595
 8\C,0,2.771149,-1.301652,-0.038559\C,0,2.444483,-3.530538,-0.271681\C,
 0,1.1759,-2.823586,-0.224124\C,0,-1.127398,2.875887,-0.059328\C,0,-2.3
 84974,3.593083,-0.071669\C,0,-2.818533,-1.119641,-0.057327\C,0,-3.5493
 68,-2.344946,-0.078715\C,0,-2.740993,1.366092,-0.033909\H,0,-4.625165,
 -2.431759,-0.071379\H,0,-2.487154,4.667581,-0.09646\H,0,4.639314,2.535
 782,0.282328\N,0,1.414457,-1.475024,-0.101631\N,0,-1.478335,-1.387578,
 -0.125027\N,0,1.504464,1.432137,-0.00556\N,0,-1.373727,1.528504,-0.046
 362\C,0,2.643986,3.424024,0.13389\H,0,2.812844,4.489094,0.18793\C,0,3.
 416326,-2.571938,-0.133517\H,0,4.482808,-2.739397,-0.145767\C,0,-2.657
 362,-3.385667,-0.172253\C,0,-3.374398,2.667018,-0.043668\H,0,-4.440208
 ,2.839328,-0.031748\C,0,-0.101969,-3.423732,-0.230869\C,0,-3.420928,0.
 154398,-0.015741\C,0,3.457078,-0.073787,0.074718\C,0,0.131845,3.486269
 ,-0.031331\C,0,4.947179,-0.133434,0.176848\C,0,5.771266,0.23613,-0.891
 514\C,0,5.578583,-0.56906,1.346966\C,0,7.160787,0.182739,-0.803988\C,0
 ,6.96565,-0.635746,1.456266\C,0,7.758599,-0.256452,0.375212\C,0,0.1855
 48,4.979593,-0.036035\C,0,0.605911,5.689205,-1.166382\C,0,-0.176592,5.
 730945,1.087371\C,0,0.666715,7.080928,-1.184539\C,0,-0.130248,7.123293
 ,1.091163\C,0,0.295117,7.799435,-0.05028\C,0,-4.915062,0.198926,0.0402
 26\C,0,-5.68074,0.503934,-1.089314\C,0,-5.605541,-0.069841,1.22637\C,0
 ,-7.07269,0.546334,-1.046499\C,0,-6.996695,-0.038186,1.292543\C,0,-7.7
 31364,0.272395,0.150134\C,0,-3.085652,-4.785658,-0.22409\C,0,-3.504038
 ,-7.002763,-0.859312\H,0,-1.928899,-5.743225,-1.775655\C,0,2.718517,-4
 .96457,-0.438152\C,0,2.920974,-7.127615,-1.329651\H,0,1.801908,-5.4911
 09,-2.330264\F,0,4.844581,-0.938148,2.404606\F,0,7.539029,-1.054555,2.
 589345\F,0,9.088732,-0.313722,0.469293\F,0,7.921418,0.543333,-1.843009
 \F,0,5.228947,0.658002,-2.041089\F,0,0.967364,5.029018,-2.274115\F,0,1
 .0725,7.729554,-2.281347\F,0,0.346576,9.133245,-0.056985\F,0,-0.483555
 ,7.812431,2.18152\F,0,-0.585764,5.112,2.202664\F,0,-5.077042,0.770186,
 -2.255127\F,0,-7.77789,0.843384,-2.14333\F,0,-9.064669,0.308751,0.2024
 53\F,0,-7.629014,-0.297688,2.441709\F,0,-4.926835,-0.369883,2.340811\H
 ,0,2.763866,-7.924386,-2.047263\H,0,-3.359532,-7.916512,-1.424856\C,0,
 2.387086,-5.813835,-1.476074\C,0,-2.726337,-5.825761,-1.049865\C,0,-4.
 4561,-6.862923,0.114565\H,0,-5.164905,-7.597138,0.471749\S,0,-4.415846
 ,-5.281414,0.813827\S,0,3.716114,-5.808508,0.732139\C,0,3.66445,-7.272
 108,-0.190011\H,0,4.175788,-8.155438,0.167291\Pd,0,0.015889,0.024152,-
 0.070758\O,0,-0.198558,-4.76918,-0.264358\H,0,0.680194,-5.185683,-0.23
 3121\\Version=ES64L-G16RevC.01\State=1-A\HF=-4475.5294031\RMSD=4.049e-
 09\PG=C01 [X(C46H13F15N4O1Pd1S2)]\\@
 The archive entry for this job was punched.


 ALL MY ATTEMPTS TO ADAPT THE THEORETICAL FOUNDATIONS OF PHYSICS
 TO THESE NEW NOTIONS FAILED COMPLETELY. IT WAS AS IF THE GROUND HAD
 BEEN PULLED OUT FROM UNDER ONE WITH NO FIRM FOUNDATION TO BE SEEN ANYWHERE,
 UPON WHICH ONE COULD HAVE BUILT.  -- A.EINSTEIN
 Job cpu time:       0 days 22 hours 56 minutes 43.2 seconds.
 Elapsed time:       0 days  1 hours 26 minutes  3.9 seconds.
 File lengths (MBytes):  RWF=  42137 Int=      0 D2E=      0 Chk=   2914 Scr=      1
 Normal termination of Gaussian 16 at Sat Sep  3 17:00:32 2022.
