 Entering Gaussian System, Link 0=/local/apl/lx/g16c01/g16/._.g16
 Initial command:
 /local/apl/lx/g16c01/g16/l1.exe "/work/users/cpi/tmp.48887/Gau-48944.inp" -scrdir="/work/users/cpi/tmp.48887/"
 Entering Link 1 = /local/apl/lx/g16c01/g16/l1.exe PID=     48945.
  
 Copyright (c) 1988-2019, Gaussian, Inc.  All Rights Reserved.
  
 This is part of the Gaussian(R) 16 program.  It is based on
 the Gaussian(R) 09 system (copyright 2009, Gaussian, Inc.),
 the Gaussian(R) 03 system (copyright 2003, Gaussian, Inc.),
 the Gaussian(R) 98 system (copyright 1998, Gaussian, Inc.),
 the Gaussian(R) 94 system (copyright 1995, Gaussian, Inc.),
 the Gaussian 92(TM) system (copyright 1992, Gaussian, Inc.),
 the Gaussian 90(TM) system (copyright 1990, Gaussian, Inc.),
 the Gaussian 88(TM) system (copyright 1988, Gaussian, Inc.),
 the Gaussian 86(TM) system (copyright 1986, Carnegie Mellon
 University), and the Gaussian 82(TM) system (copyright 1983,
 Carnegie Mellon University). Gaussian is a federally registered
 trademark of Gaussian, Inc.
  
 This software contains proprietary and confidential information,
 including trade secrets, belonging to Gaussian, Inc.
  
 This software is provided under written license and may be
 used, copied, transmitted, or stored only in accord with that
 written license.
  
 The following legend is applicable only to US Government
 contracts under FAR:
  
                    RESTRICTED RIGHTS LEGEND
  
 Use, reproduction and disclosure by the US Government is
 subject to restrictions as set forth in subparagraphs (a)
 and (c) of the Commercial Computer Software - Restricted
 Rights clause in FAR 52.227-19.
  
 Gaussian, Inc.
 340 Quinnipiac St., Bldg. 40, Wallingford CT 06492
  
  
 ---------------------------------------------------------------
 Warning -- This program may not be used in any manner that
 competes with the business of Gaussian, Inc. or will provide
 assistance to any competitor of Gaussian, Inc.  The licensee
 of this program is prohibited from giving any competitor of
 Gaussian, Inc. access to this program.  By using this program,
 the user acknowledges that Gaussian, Inc. is engaged in the
 business of creating and licensing software in the field of
 computational chemistry and represents and warrants to the
 licensee that it is not a competitor of Gaussian, Inc. and that
 it will not use this program in any manner prohibited above.
 ---------------------------------------------------------------
  

 Cite this work as:
 Gaussian 16, Revision C.01,
 M. J. Frisch, G. W. Trucks, H. B. Schlegel, G. E. Scuseria, 
 M. A. Robb, J. R. Cheeseman, G. Scalmani, V. Barone, 
 G. A. Petersson, H. Nakatsuji, X. Li, M. Caricato, A. V. Marenich, 
 J. Bloino, B. G. Janesko, R. Gomperts, B. Mennucci, H. P. Hratchian, 
 J. V. Ortiz, A. F. Izmaylov, J. L. Sonnenberg, D. Williams-Young, 
 F. Ding, F. Lipparini, F. Egidi, J. Goings, B. Peng, A. Petrone, 
 T. Henderson, D. Ranasinghe, V. G. Zakrzewski, J. Gao, N. Rega, 
 G. Zheng, W. Liang, M. Hada, M. Ehara, K. Toyota, R. Fukuda, 
 J. Hasegawa, M. Ishida, T. Nakajima, Y. Honda, O. Kitao, H. Nakai, 
 T. Vreven, K. Throssell, J. A. Montgomery, Jr., J. E. Peralta, 
 F. Ogliaro, M. J. Bearpark, J. J. Heyd, E. N. Brothers, K. N. Kudin, 
 V. N. Staroverov, T. A. Keith, R. Kobayashi, J. Normand, 
 K. Raghavachari, A. P. Rendell, J. C. Burant, S. S. Iyengar, 
 J. Tomasi, M. Cossi, J. M. Millam, M. Klene, C. Adamo, R. Cammi, 
 J. W. Ochterski, R. L. Martin, K. Morokuma, O. Farkas, 
 J. B. Foresman, and D. J. Fox, Gaussian, Inc., Wallingford CT, 2019.
 
 ******************************************
 Gaussian 16:  ES64L-G16RevC.01  3-Jul-2019
                 3-Sep-2022 
 ******************************************
 %mem=100GB
 %nprocshare=16
 Will use up to   16 processors via shared memory.
 %chk=Pt_3C6F5_Por_thiophene_OH.chk
 ----------------------------------------------------------------
 # td=(nstates=75) b3lyp/genecp geom=connectivity scf=maxcyc=1000
 ----------------------------------------------------------------
 1/38=1,57=2,172=1/1;
 2/12=2,17=6,18=5,40=1/2;
 3/5=7,11=9,16=1,17=8,25=1,30=1,74=-5/1,2,3,8;
 4//1;
 5/5=2,7=1000,38=5/2;
 8/6=1,10=1,108=75/1;
 9/41=75,42=1,70=2/14;
 6/7=2,8=2,9=2,10=2/1;
 99/5=1,9=1/99;
 -----
 title
 -----
 Symbolic Z-matrix:
 Charge =  0 Multiplicity = 1
 C                    -1.98144  -2.78484  -0.15655 
 C                     2.1828    1.74359   0.02502 
 C                     4.21014   0.75508   0.07245 
 C                     3.16465  -0.2407    0.03344 
 C                     2.36649  -2.58885   0.0117 
 C                     1.36327  -4.61013  -0.00465 
 C                     0.39003  -3.55767  -0.03428 
 C                    -0.16296   2.54014   0.01603 
 C                    -1.15843   3.58931   0.0391 
 C                    -2.93929  -0.79     -0.07314 
 C                    -3.98758  -1.75655  -0.16248 
 C                    -2.14884   1.56295   0.01085 
 H                    -5.04321  -1.53666  -0.2138 
 H                    -0.94378   4.64727   0.0482 
 H                     5.26781   0.5417    0.11051 
 N                     1.01636  -2.33552  -0.02282 
 N                    -1.7249   -1.42981  -0.07873 
 N                     1.93779   0.39243   0.00801 
 N                    -0.7906    1.31909  -0.00363 
 C                     3.6094    1.97066   0.06595 
 H                     4.08191   2.94077   0.09883 
 C                     2.5865   -4.01147   0.0182 
 H                     3.554    -4.49043   0.03163 
 C                    -3.41358  -2.99946  -0.23651 
 C                    -2.37406   2.99088   0.045 
 H                    -3.3432    3.46582   0.07116 
 C                    -0.99207  -3.78107  -0.0939 
 C                    -3.15125   0.60141  -0.01553 
 C                     3.37887  -1.61595   0.03582 
 C                     1.21797   2.75664   0.02363 
 C                     4.79379  -2.0988    0.06737 
 C                     5.6076   -2.04739  -1.0688 
 C                     5.35767  -2.62621   1.23355 
 C                     6.92648  -2.49628  -1.05126 
 C                     6.67237  -3.08523   1.27393 
 C                     7.45872  -3.01807   0.12571 
 C                     1.69986   4.17183   0.03888 
 C                     2.24519   4.76829  -1.10295 
 C                     1.62773   4.95667   1.19453 
 C                     2.70198   6.08451  -1.1012 
 C                     2.07239   6.27675   1.21907 
 C                     2.61299   6.84073   0.06551 
 C                    -4.56938   1.07447   0.00979 
 C                    -5.16703   1.65765  -1.1124 
 C                    -5.35818   0.94708   1.15811 
 C                    -6.48769   2.10133  -1.09761 
 C                    -6.68226   1.37838   1.19513 
 C                    -7.24721   1.95905   0.06159 
 C                    -4.15763  -4.25625  -0.3822 
 C                    -5.03537  -6.26729  -1.2188 
 H                    -3.3659   -5.16613  -2.18416 
 F                     4.62829  -2.70156   2.35391 
 F                     7.18424  -3.58328   2.40447 
 F                     8.72049  -3.45265   0.15355 
 F                     7.68046  -2.43388  -2.15393 
 F                     5.12472  -1.55405  -2.21622 
 F                     2.34266   4.06903  -2.24077 
 F                     3.21852   6.6265   -2.2092 
 F                     3.0448    8.10371   0.07809 
 F                     1.98912   7.00162   2.33985 
 F                     1.11549   4.44334   2.32062 
 F                    -4.46569   1.80533  -2.24374 
 F                    -7.03061   2.65573  -2.18669 
 F                    -8.5141    2.37832   0.08624 
 F                    -7.41025   1.24387   2.30865 
 F                    -4.84377   0.39457   2.26417 
 H                    -5.11806  -7.10801  -1.89766 
 C                    -4.07396  -5.2241   -1.3646 
 C                    -5.85212  -6.08626  -0.13627 
 H                    -6.65778  -6.7204    0.20744 
 S                    -5.45358  -4.64349   0.73363 
 O                    -1.32185  -5.09474  -0.081 
 H                    -2.28741  -5.21001  -0.10046 
 H                     1.12753  -5.66312  -0.00901 
 Pt                    0.11014  -0.51217  -0.02394 
 
 Stoichiometry    C42H11F15N4OPtS
 Framework group  C1[X(C42H11F15N4OPtS)]
 Deg. of freedom   219
 Full point group                 C1      NOp   1
 Largest Abelian subgroup         C1      NOp   1
 Largest concise Abelian subgroup C1      NOp   1
                         Standard orientation:                         
 ---------------------------------------------------------------------
 Center     Atomic      Atomic             Coordinates (Angstroms)
 Number     Number       Type             X           Y           Z
 ---------------------------------------------------------------------
      1          6           0       -1.981437   -2.784835   -0.156551
      2          6           0        2.182795    1.743593    0.025024
      3          6           0        4.210140    0.755084    0.072449
      4          6           0        3.164645   -0.240701    0.033437
      5          6           0        2.366494   -2.588846    0.011704
      6          6           0        1.363273   -4.610125   -0.004646
      7          6           0        0.390026   -3.557669   -0.034276
      8          6           0       -0.162959    2.540139    0.016030
      9          6           0       -1.158429    3.589310    0.039095
     10          6           0       -2.939292   -0.789999   -0.073140
     11          6           0       -3.987579   -1.756551   -0.162479
     12          6           0       -2.148844    1.562952    0.010848
     13          1           0       -5.043208   -1.536664   -0.213802
     14          1           0       -0.943781    4.647273    0.048195
     15          1           0        5.267807    0.541701    0.110506
     16          7           0        1.016362   -2.335522   -0.022816
     17          7           0       -1.724899   -1.429807   -0.078728
     18          7           0        1.937788    0.392428    0.008012
     19          7           0       -0.790602    1.319087   -0.003633
     20          6           0        3.609402    1.970659    0.065951
     21          1           0        4.081908    2.940765    0.098833
     22          6           0        2.586498   -4.011474    0.018195
     23          1           0        3.554003   -4.490434    0.031626
     24          6           0       -3.413581   -2.999464   -0.236507
     25          6           0       -2.374060    2.990882    0.044999
     26          1           0       -3.343196    3.465815    0.071156
     27          6           0       -0.992066   -3.781065   -0.093899
     28          6           0       -3.151254    0.601408   -0.015532
     29          6           0        3.378874   -1.615948    0.035815
     30          6           0        1.217970    2.756639    0.023632
     31          6           0        4.793791   -2.098798    0.067366
     32          6           0        5.607600   -2.047395   -1.068802
     33          6           0        5.357668   -2.626210    1.233547
     34          6           0        6.926483   -2.496280   -1.051264
     35          6           0        6.672368   -3.085231    1.273925
     36          6           0        7.458720   -3.018073    0.125712
     37          6           0        1.699861    4.171834    0.038877
     38          6           0        2.245192    4.768292   -1.102950
     39          6           0        1.627729    4.956668    1.194534
     40          6           0        2.701977    6.084508   -1.101196
     41          6           0        2.072390    6.276754    1.219068
     42          6           0        2.612992    6.840732    0.065509
     43          6           0       -4.569376    1.074474    0.009790
     44          6           0       -5.167028    1.657645   -1.112395
     45          6           0       -5.358182    0.947081    1.158107
     46          6           0       -6.487692    2.101334   -1.097608
     47          6           0       -6.682256    1.378377    1.195132
     48          6           0       -7.247209    1.959049    0.061585
     49          6           0       -4.157629   -4.256253   -0.382200
     50          6           0       -5.035370   -6.267289   -1.218795
     51          1           0       -3.365896   -5.166129   -2.184158
     52          9           0        4.628292   -2.701559    2.353913
     53          9           0        7.184244   -3.583279    2.404473
     54          9           0        8.720493   -3.452649    0.153550
     55          9           0        7.680458   -2.433881   -2.153933
     56          9           0        5.124719   -1.554050   -2.216223
     57          9           0        2.342657    4.069030   -2.240773
     58          9           0        3.218517    6.626498   -2.209202
     59          9           0        3.044801    8.103715    0.078091
     60          9           0        1.989124    7.001620    2.339850
     61          9           0        1.115492    4.443339    2.320616
     62          9           0       -4.465689    1.805334   -2.243735
     63          9           0       -7.030610    2.655727   -2.186689
     64          9           0       -8.514099    2.378316    0.086244
     65          9           0       -7.410247    1.243870    2.308651
     66          9           0       -4.843773    0.394574    2.264165
     67          1           0       -5.118059   -7.108013   -1.897656
     68          6           0       -4.073956   -5.224097   -1.364595
     69          6           0       -5.852118   -6.086260   -0.136265
     70          1           0       -6.657780   -6.720399    0.207439
     71         16           0       -5.453581   -4.643486    0.733626
     72          8           0       -1.321846   -5.094742   -0.080995
     73          1           0       -2.287407   -5.210006   -0.100463
     74          1           0        1.127535   -5.663123   -0.009008
     75         78           0        0.110138   -0.512166   -0.023935
 ---------------------------------------------------------------------
 Rotational constants (GHZ):           0.0365211           0.0247812           0.0161180
 General basis read from cards:  (5D, 7F)
 ======================================================================================================
                                       Pseudopotential Parameters
 ======================================================================================================
  Center     Atomic      Valence      Angular      Power
  Number     Number     Electrons     Momentum     of R      Exponent        Coefficient   SO-Coeffient
 ======================================================================================================
    1          6
                                   No pseudopotential on this center.
    2          6
                                   No pseudopotential on this center.
    3          6
                                   No pseudopotential on this center.
    4          6
                                   No pseudopotential on this center.
    5          6
                                   No pseudopotential on this center.
    6          6
                                   No pseudopotential on this center.
    7          6
                                   No pseudopotential on this center.
    8          6
                                   No pseudopotential on this center.
    9          6
                                   No pseudopotential on this center.
   10          6
                                   No pseudopotential on this center.
   11          6
                                   No pseudopotential on this center.
   12          6
                                   No pseudopotential on this center.
   13          1
                                   No pseudopotential on this center.
   14          1
                                   No pseudopotential on this center.
   15          1
                                   No pseudopotential on this center.
   16          7
                                   No pseudopotential on this center.
   17          7
                                   No pseudopotential on this center.
   18          7
                                   No pseudopotential on this center.
   19          7
                                   No pseudopotential on this center.
   20          6
                                   No pseudopotential on this center.
   21          1
                                   No pseudopotential on this center.
   22          6
                                   No pseudopotential on this center.
   23          1
                                   No pseudopotential on this center.
   24          6
                                   No pseudopotential on this center.
   25          6
                                   No pseudopotential on this center.
   26          1
                                   No pseudopotential on this center.
   27          6
                                   No pseudopotential on this center.
   28          6
                                   No pseudopotential on this center.
   29          6
                                   No pseudopotential on this center.
   30          6
                                   No pseudopotential on this center.
   31          6
                                   No pseudopotential on this center.
   32          6
                                   No pseudopotential on this center.
   33          6
                                   No pseudopotential on this center.
   34          6
                                   No pseudopotential on this center.
   35          6
                                   No pseudopotential on this center.
   36          6
                                   No pseudopotential on this center.
   37          6
                                   No pseudopotential on this center.
   38          6
                                   No pseudopotential on this center.
   39          6
                                   No pseudopotential on this center.
   40          6
                                   No pseudopotential on this center.
   41          6
                                   No pseudopotential on this center.
   42          6
                                   No pseudopotential on this center.
   43          6
                                   No pseudopotential on this center.
   44          6
                                   No pseudopotential on this center.
   45          6
                                   No pseudopotential on this center.
   46          6
                                   No pseudopotential on this center.
   47          6
                                   No pseudopotential on this center.
   48          6
                                   No pseudopotential on this center.
   49          6
                                   No pseudopotential on this center.
   50          6
                                   No pseudopotential on this center.
   51          1
                                   No pseudopotential on this center.
   52          9
                                   No pseudopotential on this center.
   53          9
                                   No pseudopotential on this center.
   54          9
                                   No pseudopotential on this center.
   55          9
                                   No pseudopotential on this center.
   56          9
                                   No pseudopotential on this center.
   57          9
                                   No pseudopotential on this center.
   58          9
                                   No pseudopotential on this center.
   59          9
                                   No pseudopotential on this center.
   60          9
                                   No pseudopotential on this center.
   61          9
                                   No pseudopotential on this center.
   62          9
                                   No pseudopotential on this center.
   63          9
                                   No pseudopotential on this center.
   64          9
                                   No pseudopotential on this center.
   65          9
                                   No pseudopotential on this center.
   66          9
                                   No pseudopotential on this center.
   67          1
                                   No pseudopotential on this center.
   68          6
                                   No pseudopotential on this center.
   69          6
                                   No pseudopotential on this center.
   70          1
                                   No pseudopotential on this center.
   71         16
                                   No pseudopotential on this center.
   72          8
                                   No pseudopotential on this center.
   73          1
                                   No pseudopotential on this center.
   74          1
                                   No pseudopotential on this center.
   75         78           18
                                      G and up 
                                                     1      728.9394056       -0.16192680    0.00000000
                                                     2      320.6567800    -1320.28738520    0.00000000
                                                     2       52.8680174     -298.31781350    0.00000000
                                                     2       12.0280128      -87.58370650    0.00000000
                                                     2        3.5238913       -8.14932740    0.00000000
                                      S - G
                                                     0      409.4437358        2.73342180    0.00000000
                                                     1      274.5419231       59.70243290    0.00000000
                                                     2      127.5658570      891.45895500    0.00000000
                                                     2       32.9036631      368.44676560    0.00000000
                                                     2        5.0593880      238.02630900    0.00000000
                                                     2        4.1506556     -107.05564540    0.00000000
                                      P - G
                                                     0      466.1728892        1.88785680    0.00000000
                                                     1      120.7888259       76.01386290    0.00000000
                                                     2       36.4118791      343.55111160    0.00000000
                                                     2        5.6985408      119.49117860    0.00000000
                                      D - G
                                                     0      249.5650763        2.93436780    0.00000000
                                                     1      126.6678585       59.33065710    0.00000000
                                                     2       63.1430586      452.44451940    0.00000000
                                                     2       17.9059470      210.47694790    0.00000000
                                                     2        4.2239373       58.62541120    0.00000000
                                      F - G
                                                     0      121.8158799        3.95342530    0.00000000
                                                     1       60.8757030       53.85551820    0.00000000
                                                     2       31.4767147      247.43051330    0.00000000
                                                     2        9.8811751      127.81879760    0.00000000
                                                     2        2.7319874       15.37720460    0.00000000
 ======================================================================================================
 There are  1280 symmetry adapted cartesian basis functions of A   symmetry.
 There are  1215 symmetry adapted basis functions of A   symmetry.
  1215 basis functions,  2160 primitive gaussians,  1280 cartesian basis functions
   234 alpha electrons      234 beta electrons
       nuclear repulsion energy     10152.8072175389 Hartrees.
 NAtoms=   75 NActive=   75 NUniq=   75 SFac= 1.00D+00 NAtFMM=   60 NAOKFM=T Big=T
 Integral buffers will be    131072 words long.
 Regular integral format.
 Two-electron integral symmetry is turned on.
 One-electron integrals computed using PRISM.
   1 Symmetry operations used in ECPInt.
 ECPInt:  NShTT=   63903 NPrTT=  348554 LenC2=   43971 LenP2D=  126924.
 LDataN:  DoStor=T MaxTD1= 6 Len=  172
 NBasis=  1215 RedAO= T EigKep=  1.07D-06  NBF=  1215
 NBsUse=  1197 1.00D-06 EigRej=  9.69D-07 NBFU=  1197
 Defaulting to unpruned grid for atomic number  78.
 ExpMin= 2.90D-02 ExpMax= 2.19D+04 ExpMxC= 3.30D+03 IAcc=3 IRadAn=         5 AccDes= 0.00D+00
 Harris functional with IExCor=  402 and IRadAn=       5 diagonalized for initial guess.
 HarFok:  IExCor=  402 AccDes= 0.00D+00 IRadAn=         5 IDoV= 1 UseB2=F ITyADJ=14
 ICtDFT=  3500011 ScaDFX=  1.000000  1.000000  1.000000  1.000000
 Defaulting to unpruned grid for atomic number  78.
 FoFCou: FMM=F IPFlag=           0 FMFlag=      100000 FMFlg1=        2001
         NFxFlg=           0 DoJE=T BraDBF=F KetDBF=T FulRan=T
         wScrn=  0.000000 ICntrl=       500 IOpCl=  0 I1Cent=   200000004 NGrid=           0
         NMat0=    1 NMatS0=      1 NMatT0=    0 NMatD0=    1 NMtDS0=    0 NMtDT0=    0
 Petite list used in FoFCou.
 Requested convergence on RMS density matrix=1.00D-08 within1000 cycles.
 Requested convergence on MAX density matrix=1.00D-06.
 Requested convergence on             energy=1.00D-06.
 No special actions if energy rises.
 Defaulting to unpruned grid for atomic number  78.
 Defaulting to unpruned grid for atomic number  78.
 Defaulting to unpruned grid for atomic number  78.
 Defaulting to unpruned grid for atomic number  78.
 Defaulting to unpruned grid for atomic number  78.
 Defaulting to unpruned grid for atomic number  78.
 Defaulting to unpruned grid for atomic number  78.
 Defaulting to unpruned grid for atomic number  78.
 Defaulting to unpruned grid for atomic number  78.
 Defaulting to unpruned grid for atomic number  78.
 Defaulting to unpruned grid for atomic number  78.
 Defaulting to unpruned grid for atomic number  78.
 Defaulting to unpruned grid for atomic number  78.
 Defaulting to unpruned grid for atomic number  78.
 Defaulting to unpruned grid for atomic number  78.
 Defaulting to unpruned grid for atomic number  78.
 EnCoef did   100 forward-backward iterations
 EnCoef did   100 forward-backward iterations
 EnCoef did     3 forward-backward iterations
 EnCoef did     1 forward-backward iterations
 EnCoef did     2 forward-backward iterations
 Restarting incremental Fock formation.
 SCF Done:  E(RB3LYP) =  -3916.34949645     A.U. after   24 cycles
            NFock= 24  Conv=0.32D-08     -V/T= 2.0270
 DoSCS=F DFT=T ScalE2(SS,OS)=  1.000000  1.000000
 ExpMin= 2.90D-02 ExpMax= 2.19D+04 ExpMxC= 3.30D+03 IAcc=3 IRadAn=         5 AccDes= 0.00D+00
 HarFok:  IExCor=  205 AccDes= 0.00D+00 IRadAn=         5 IDoV=-2 UseB2=F ITyADJ=14
 ICtDFT= 12500011 ScaDFX=  1.000000  1.000000  1.000000  1.000000
 Defaulting to unpruned grid for atomic number  78.
 GSVD:  LWork=       -5025 too small for GESVD, short by       23450 words or       23450 for optimal perf.
 Range of M.O.s used for correlation:    68  1197
 NBasis=  1215 NAE=   234 NBE=   234 NFC=    67 NFV=     0
 NROrb=   1130 NOA=   167 NOB=   167 NVA=   963 NVB=   963

 **** Warning!!: The largest alpha MO coefficient is  0.12366406D+03

 Orbital symmetries:
       Occupied  (A) (A) (A) (A) (A) (A) (A) (A) (A) (A) (A) (A)
                 (A) (A) (A) (A) (A) (A) (A) (A) (A) (A) (A) (A)
                 (A) (A) (A) (A) (A) (A) (A) (A) (A) (A) (A) (A)
                 (A) (A) (A) (A) (A) (A) (A) (A) (A) (A) (A) (A)
                 (A) (A) (A) (A) (A) (A) (A) (A) (A) (A) (A) (A)
                 (A) (A) (A) (A) (A) (A) (A) (A) (A) (A) (A) (A)
                 (A) (A) (A) (A) (A) (A) (A) (A) (A) (A) (A) (A)
                 (A) (A) (A) (A) (A) (A) (A) (A) (A) (A) (A) (A)
                 (A) (A) (A) (A) (A) (A) (A) (A) (A) (A) (A) (A)
                 (A) (A) (A) (A) (A) (A) (A) (A) (A) (A) (A) (A)
                 (A) (A) (A) (A) (A) (A) (A) (A) (A) (A) (A) (A)
                 (A) (A) (A) (A) (A) (A) (A) (A) (A) (A) (A) (A)
                 (A) (A) (A) (A) (A) (A) (A) (A) (A) (A) (A) (A)
                 (A) (A) (A) (A) (A) (A) (A) (A) (A) (A) (A) (A)
                 (A) (A) (A) (A) (A) (A) (A) (A) (A) (A) (A) (A)
                 (A) (A) (A) (A) (A) (A) (A) (A) (A) (A) (A) (A)
                 (A) (A) (A) (A) (A) (A) (A) (A) (A) (A) (A) (A)
                 (A) (A) (A) (A) (A) (A) (A) (A) (A) (A) (A) (A)
                 (A) (A) (A) (A) (A) (A) (A) (A) (A) (A) (A) (A)
                 (A) (A) (A) (A) (A) (A)
       Virtual   (A) (A) (A) (A) (A) (A) (A) (A) (A) (A) (A) (A)
                 (A) (A) (A) (A) (A) (A) (A) (A) (A) (A) (A) (A)
                 (A) (A) (A) (A) (A) (A) (A) (A) (A) (A) (A) (A)
                 (A) (A) (A) (A) (A) (A) (A) (A) (A) (A) (A) (A)
                 (A) (A) (A) (A) (A) (A) (A) (A) (A) (A) (A) (A)
                 (A) (A) (A) (A) (A) (A) (A) (A) (A) (A) (A) (A)
                 (A) (A) (A) (A) (A) (A) (A) (A) (A) (A) (A) (A)
                 (A) (A) (A) (A) (A) (A) (A) (A) (A) (A) (A) (A)
                 (A) (A) (A) (A) (A) (A) (A) (A) (A) (A) (A) (A)
                 (A) (A) (A) (A) (A) (A) (A) (A) (A) (A) (A) (A)
                 (A) (A) (A) (A) (A) (A) (A) (A) (A) (A) (A) (A)
                 (A) (A) (A) (A) (A) (A) (A) (A) (A) (A) (A) (A)
                 (A) (A) (A) (A) (A) (A) (A) (A) (A) (A) (A) (A)
                 (A) (A) (A) (A) (A) (A) (A) (A) (A) (A) (A) (A)
                 (A) (A) (A) (A) (A) (A) (A) (A) (A) (A) (A) (A)
                 (A) (A) (A) (A) (A) (A) (A) (A) (A) (A) (A) (A)
                 (A) (A) (A) (A) (A) (A) (A) (A) (A) (A) (A) (A)
                 (A) (A) (A) (A) (A) (A) (A) (A) (A) (A) (A) (A)
                 (A) (A) (A) (A) (A) (A) (A) (A) (A) (A) (A) (A)
                 (A) (A) (A) (A) (A) (A) (A) (A) (A) (A) (A) (A)
                 (A) (A) (A) (A) (A) (A) (A) (A) (A) (A) (A) (A)
                 (A) (A) (A) (A) (A) (A) (A) (A) (A) (A) (A) (A)
                 (A) (A) (A) (A) (A) (A) (A) (A) (A) (A) (A) (A)
                 (A) (A) (A) (A) (A) (A) (A) (A) (A) (A) (A) (A)
                 (A) (A) (A) (A) (A) (A) (A) (A) (A) (A) (A) (A)
                 (A) (A) (A) (A) (A) (A) (A) (A) (A) (A) (A) (A)
                 (A) (A) (A) (A) (A) (A) (A) (A) (A) (A) (A) (A)
                 (A) (A) (A) (A) (A) (A) (A) (A) (A) (A) (A) (A)
                 (A) (A) (A) (A) (A) (A) (A) (A) (A) (A) (A) (A)
                 (A) (A) (A) (A) (A) (A) (A) (A) (A) (A) (A) (A)
                 (A) (A) (A) (A) (A) (A) (A) (A) (A) (A) (A) (A)
                 (A) (A) (A) (A) (A) (A) (A) (A) (A) (A) (A) (A)
                 (A) (A) (A) (A) (A) (A) (A) (A) (A) (A) (A) (A)
                 (A) (A) (A) (A) (A) (A) (A) (A) (A) (A) (A) (A)
                 (A) (A) (A) (A) (A) (A) (A) (A) (A) (A) (A) (A)
                 (A) (A) (A) (A) (A) (A) (A) (A) (A) (A) (A) (A)
                 (A) (A) (A) (A) (A) (A) (A) (A) (A) (A) (A) (A)
                 (A) (A) (A) (A) (A) (A) (A) (A) (A) (A) (A) (A)
                 (A) (A) (A) (A) (A) (A) (A) (A) (A) (A) (A) (A)
                 (A) (A) (A) (A) (A) (A) (A) (A) (A) (A) (A) (A)
                 (A) (A) (A) (A) (A) (A) (A) (A) (A) (A) (A) (A)
                 (A) (A) (A) (A) (A) (A) (A) (A) (A) (A) (A) (A)
                 (A) (A) (A) (A) (A) (A) (A) (A) (A) (A) (A) (A)
                 (A) (A) (A) (A) (A) (A) (A) (A) (A) (A) (A) (A)
                 (A) (A) (A) (A) (A) (A) (A) (A) (A) (A) (A) (A)
                 (A) (A) (A) (A) (A) (A) (A) (A) (A) (A) (A) (A)
                 (A) (A) (A) (A) (A) (A) (A) (A) (A) (A) (A) (A)
                 (A) (A) (A) (A) (A) (A) (A) (A) (A) (A) (A) (A)
                 (A) (A) (A) (A) (A) (A) (A) (A) (A) (A) (A) (A)
                 (A) (A) (A) (A) (A) (A) (A) (A) (A) (A) (A) (A)
                 (A) (A) (A) (A) (A) (A) (A) (A) (A) (A) (A) (A)
                 (A) (A) (A) (A) (A) (A) (A) (A) (A) (A) (A) (A)
                 (A) (A) (A) (A) (A) (A) (A) (A) (A) (A) (A) (A)
                 (A) (A) (A) (A) (A) (A) (A) (A) (A) (A) (A) (A)
                 (A) (A) (A) (A) (A) (A) (A) (A) (A) (A) (A) (A)
                 (A) (A) (A) (A) (A) (A) (A) (A) (A) (A) (A) (A)
                 (A) (A) (A) (A) (A) (A) (A) (A) (A) (A) (A) (A)
                 (A) (A) (A) (A) (A) (A) (A) (A) (A) (A) (A) (A)
                 (A) (A) (A) (A) (A) (A) (A) (A) (A) (A) (A) (A)
                 (A) (A) (A) (A) (A) (A) (A) (A) (A) (A) (A) (A)
                 (A) (A) (A) (A) (A) (A) (A) (A) (A) (A) (A) (A)
                 (A) (A) (A) (A) (A) (A) (A) (A) (A) (A) (A) (A)
                 (A) (A) (A) (A) (A) (A) (A) (A) (A) (A) (A) (A)
                 (A) (A) (A) (A) (A) (A) (A) (A) (A) (A) (A) (A)
                 (A) (A) (A) (A) (A) (A) (A) (A) (A) (A) (A) (A)
                 (A) (A) (A) (A) (A) (A) (A) (A) (A) (A) (A) (A)
                 (A) (A) (A) (A) (A) (A) (A) (A) (A) (A) (A) (A)
                 (A) (A) (A) (A) (A) (A) (A) (A) (A) (A) (A) (A)
                 (A) (A) (A) (A) (A) (A) (A) (A) (A) (A) (A) (A)
                 (A) (A) (A) (A) (A) (A) (A) (A) (A) (A) (A) (A)
                 (A) (A) (A) (A) (A) (A) (A) (A) (A) (A) (A) (A)
                 (A) (A) (A) (A) (A) (A) (A) (A) (A) (A) (A) (A)
                 (A) (A) (A) (A) (A) (A) (A) (A) (A) (A) (A) (A)
                 (A) (A) (A) (A) (A) (A) (A) (A) (A) (A) (A) (A)
                 (A) (A) (A) (A) (A) (A) (A) (A) (A) (A) (A) (A)
                 (A) (A) (A) (A) (A) (A) (A) (A) (A) (A) (A) (A)
                 (A) (A) (A) (A) (A) (A) (A) (A) (A) (A) (A) (A)
                 (A) (A) (A) (A) (A) (A) (A) (A) (A) (A) (A) (A)
                 (A) (A) (A) (A) (A) (A) (A) (A) (A) (A) (A) (A)
                 (A) (A) (A) (A) (A) (A) (A) (A) (A) (A) (A) (A)
                 (A) (A) (A)
   300 initial guesses have been made.
 Convergence on wavefunction:    0.001000000000000
 Iteration     1 Dimension   300 NMult     0 NNew    300
 CISAX will form   160 AO SS matrices at one time.
 Defaulting to unpruned grid for atomic number  78.
 Defaulting to unpruned grid for atomic number  78.
 Defaulting to unpruned grid for atomic number  78.
 Defaulting to unpruned grid for atomic number  78.
 Defaulting to unpruned grid for atomic number  78.
 Defaulting to unpruned grid for atomic number  78.
 Defaulting to unpruned grid for atomic number  78.
 Defaulting to unpruned grid for atomic number  78.
 Defaulting to unpruned grid for atomic number  78.
 Defaulting to unpruned grid for atomic number  78.
 Defaulting to unpruned grid for atomic number  78.
 Defaulting to unpruned grid for atomic number  78.
 Defaulting to unpruned grid for atomic number  78.
 Defaulting to unpruned grid for atomic number  78.
 Defaulting to unpruned grid for atomic number  78.
 Defaulting to unpruned grid for atomic number  78.
 New state      2 was old state      3
 New state      3 was old state      5
 New state      4 was old state      6
 New state      5 was old state      8
 New state      6 was old state      9
 New state      7 was old state     11
 New state      8 was old state     10
 New state      9 was old state     13
 New state     10 was old state     12
 New state     11 was old state      7
 New state     12 was old state     22
 New state     13 was old state     20
 New state     14 was old state     16
 New state     15 was old state     14
 New state     16 was old state     17
 New state     17 was old state     15
 New state     18 was old state     19
 New state     19 was old state     26
 New state     20 was old state     18
 New state     21 was old state     24
 New state     22 was old state     21
 New state     24 was old state     27
 New state     26 was old state     28
 New state     27 was old state     29
 New state     28 was old state     31
 New state     29 was old state     35
 New state     30 was old state     34
 New state     31 was old state     38
 New state     32 was old state     30
 New state     33 was old state     32
 New state     34 was old state     33
 New state     35 was old state     39
 New state     38 was old state     67
 New state     39 was old state     46
 New state     41 was old state     63
 New state     42 was old state     43
 New state     43 was old state     42
 New state     44 was old state     45
 New state     45 was old state     44
 New state     46 was old state     48
 New state     47 was old state     95
 New state     48 was old state     83
 New state     49 was old state     51
 New state     50 was old state     49
 New state     51 was old state     80
 New state     52 was old state     92
 New state     53 was old state     52
 New state     54 was old state     50
 New state     55 was old state     56
 New state     56 was old state     64
 New state     57 was old state     55
 New state     58 was old state     53
 New state     59 was old state     57
 New state     60 was old state     54
 New state     61 was old state     58
 New state     62 was old state    151
 New state     63 was old state     59
 New state     64 was old state     61
 New state     65 was old state     60
 New state     66 was old state     68
 New state     67 was old state     47
 New state     68 was old state     84
 New state     69 was old state     65
 New state     70 was old state     62
 New state     71 was old state     66
 New state     72 was old state     70
 New state     73 was old state     72
 New state     74 was old state     69
 New state     75 was old state     78
 Iteration     2 Dimension   450 NMult   300 NNew    150
 New state      7 was old state      9
 New state      9 was old state     10
 New state     10 was old state      7
 New state     14 was old state     15
 New state     15 was old state     14
 New state     17 was old state     18
 New state     18 was old state     19
 New state     19 was old state     20
 New state     20 was old state     17
 New state     23 was old state     24
 New state     24 was old state     27
 New state     25 was old state     23
 New state     26 was old state     25
 New state     27 was old state     26
 New state     29 was old state     30
 New state     30 was old state     32
 New state     32 was old state     29
 New state     33 was old state     35
 New state     34 was old state     36
 New state     35 was old state     33
 New state     36 was old state     34
 New state     37 was old state     38
 New state     38 was old state     39
 New state     39 was old state     46
 New state     40 was old state     37
 New state     42 was old state     40
 New state     43 was old state     48
 New state     44 was old state     42
 New state     45 was old state     43
 New state     46 was old state     44
 New state     47 was old state     45
 New state     48 was old state     69
 New state     49 was old state     51
 New state     50 was old state     49
 New state     51 was old state     53
 New state     53 was old state     50
 New state     54 was old state     55
 New state     55 was old state     68
 New state     56 was old state     67
 New state     57 was old state     54
 New state     58 was old state     56
 New state     59 was old state     57
 New state     60 was old state     58
 New state     61 was old state     59
 New state     62 was old state     61
 New state     63 was old state     62
 New state     64 was old state     60
 New state     65 was old state     63
 New state     66 was old state     64
 New state     67 was old state     65
 New state     68 was old state     66
 No map to state     69
 New state     71 was old state     76
 New state     72 was old state     75
 New state     73 was old state     71
 New state     74 was old state     72
 New state     75 was old state     73
 Iteration     3 Dimension   600 NMult   450 NNew    150
 Iteration     4 Dimension   750 NMult   600 NNew    150
 New state     74 was old state     75
 New state     75 was old state     74
 Iteration     5 Dimension   828 NMult   750 NNew     78
 Iteration     6 Dimension   832 NMult   828 NNew      4
 ***********************************************************************
 Excited states from <AA,BB:AA,BB> singles matrix:
 ***********************************************************************
 
 Ground to excited state transition densities written to RWF  633
 Ground to excited state transition electric dipole moments (Au):
       state          X           Y           Z        Dip. S.      Osc.
         1        -0.6954      0.6119      0.0073      0.8580      0.0497
         2         0.1036      0.0766      0.0294      0.0175      0.0010
         3        -0.1628     -0.1676     -0.0151      0.0548      0.0035
         4         0.2649      0.2395      0.0220      0.1280      0.0085
         5        -0.0680      0.0832     -0.0046      0.0116      0.0008
         6        -0.1353     -0.1122     -0.0036      0.0309      0.0023
         7         0.6354      0.0735      0.0315      0.4102      0.0310
         8        -3.5299     -0.1839     -0.1180     12.5080      0.9672
         9        -0.6043     -3.2306     -0.0732     10.8074      0.8543
        10        -0.2052      0.0607     -0.0199      0.0462      0.0037
        11        -0.6592      0.4630      0.0110      0.6490      0.0555
        12         0.0307      0.1535     -0.0195      0.0249      0.0022
        13         0.5164     -0.9114     -0.0149      1.0975      0.0997
        14        -0.6822     -0.7300     -0.0388      0.9999      0.0958
        15         0.2983      0.1088     -0.0039      0.1009      0.0097
        16         0.2593     -0.0340     -0.0641      0.0725      0.0071
        17        -0.1598      0.2807     -0.0083      0.1044      0.0102
        18        -0.0603     -0.2176      0.0259      0.0517      0.0051
        19        -0.0033      0.0314     -0.0683      0.0057      0.0006
        20        -0.1363     -0.0263     -0.0133      0.0194      0.0019
        21        -0.3195      0.1608     -0.0049      0.1279      0.0127
        22         0.7086      0.6243      0.0578      0.8952      0.0894
        23         0.5689     -0.4035     -0.0723      0.4917      0.0495
        24         0.2098      1.0951      0.0208      1.2437      0.1256
        25         0.1612     -0.2004      0.0036      0.0662      0.0067
        26         0.4540     -0.1522      0.0322      0.2303      0.0234
        27         0.2447     -0.2492     -0.0346      0.1232      0.0126
        28         0.0129     -0.1094      0.0687      0.0168      0.0017
        29        -0.0770      0.0499      0.0026      0.0084      0.0009
        30        -0.0259     -0.5216     -0.0099      0.2728      0.0282
        31        -0.0265     -0.2722     -0.0321      0.0758      0.0079
        32         0.0768     -0.1780      0.0051      0.0376      0.0039
        33         0.0037      0.0040     -0.0009      0.0000      0.0000
        34        -0.0975      0.1202     -0.0316      0.0250      0.0026
        35        -0.2243      0.1387     -0.0368      0.0709      0.0075
        36         0.1540     -0.2064      0.0380      0.0678      0.0071
        37        -0.1665      0.0400     -0.0155      0.0296      0.0031
        38        -0.3393      0.0172     -0.0262      0.1161      0.0122
        39        -0.2011      0.2387      0.0532      0.1003      0.0106
        40        -0.0260     -0.1012     -0.0264      0.0116      0.0012
        41        -0.1113      0.0730     -0.0401      0.0193      0.0021
        42         0.1283      0.1817      0.0421      0.0512      0.0055
        43         0.0613      0.0689     -0.0105      0.0086      0.0009
        44         0.0355     -0.0997     -0.0024      0.0112      0.0012
        45         0.1314     -0.0369      0.0284      0.0194      0.0021
        46         0.0456     -0.2934     -0.0683      0.0928      0.0100
        47         0.1066     -0.1512      0.0043      0.0342      0.0037
        48        -0.2712      0.2425     -0.0300      0.1333      0.0145
        49        -0.4884      0.3546     -0.0280      0.3651      0.0398
        50         0.3086     -0.0996      0.0054      0.1052      0.0115
        51        -0.2842      0.0951      0.0079      0.0899      0.0099
        52         0.1057      0.4647      0.0507      0.2296      0.0253
        53         0.0837     -0.0429      0.0021      0.0089      0.0010
        54         0.0362      0.2459     -0.0061      0.0618      0.0069
        55         0.2367      0.0871      0.0041      0.0636      0.0071
        56         0.0514      0.0352     -0.0238      0.0044      0.0005
        57         0.0138      0.0258      0.0085      0.0009      0.0001
        58         0.0841      0.0599     -0.0026      0.0107      0.0012
        59         0.2583     -0.1415      0.0101      0.0869      0.0098
        60         0.0193     -0.0035     -0.0015      0.0004      0.0000
        61        -0.1217     -0.2339     -0.0239      0.0701      0.0079
        62        -0.2943     -0.4186     -0.0104      0.2619      0.0296
        63        -0.2516      0.0236     -0.0024      0.0639      0.0072
        64        -0.2843     -0.1157     -0.0124      0.0944      0.0107
        65        -0.2042     -0.0460     -0.0121      0.0440      0.0050
        66         0.0514      0.0307      0.0145      0.0038      0.0004
        67        -0.0033     -0.0503      0.0143      0.0027      0.0003
        68         0.0187      0.0430     -0.0025      0.0022      0.0003
        69         0.1328      0.1161      0.0051      0.0311      0.0036
        70         0.2837     -0.0169      0.0304      0.0817      0.0094
        71        -0.5595      0.0576     -0.0050      0.3164      0.0366
        72         0.5282      0.4557      0.0127      0.4868      0.0574
        73        -0.0317     -0.0521     -0.0077      0.0038      0.0004
        74        -0.0261     -0.3314      0.0028      0.1105      0.0132
        75         0.0345      0.0450      0.0462      0.0054      0.0006
 Ground to excited state transition velocity dipole moments (Au):
       state          X           Y           Z        Dip. S.      Osc.
         1         0.0572     -0.0517     -0.0001      0.0059      0.0456
         2        -0.0094     -0.0091     -0.0020      0.0002      0.0013
         3         0.0150      0.0155      0.0010      0.0005      0.0033
         4        -0.0251     -0.0220     -0.0019      0.0011      0.0075
         5         0.0065     -0.0085      0.0004      0.0001      0.0007
         6         0.0147      0.0122      0.0000      0.0004      0.0022
         7        -0.0703     -0.0076     -0.0031      0.0050      0.0294
         8         0.3998      0.0196      0.0123      0.1603      0.9216
         9         0.0691      0.3736      0.0079      0.1444      0.8120
        10         0.0239     -0.0073      0.0030      0.0006      0.0035
        11         0.0839     -0.0553     -0.0011      0.0101      0.0525
        12        -0.0019     -0.0194      0.0033      0.0004      0.0019
        13        -0.0654      0.1216      0.0012      0.0191      0.0933
        14         0.0951      0.0980      0.0053      0.0187      0.0866
        15        -0.0437     -0.0121      0.0002      0.0021      0.0095
        16        -0.0369      0.0046      0.0100      0.0015      0.0068
        17         0.0224     -0.0384      0.0013      0.0020      0.0090
        18         0.0091      0.0318     -0.0030      0.0011      0.0050
        19         0.0000     -0.0053      0.0118      0.0002      0.0008
        20         0.0201      0.0045      0.0013      0.0004      0.0019
        21         0.0472     -0.0246      0.0023      0.0028      0.0127
        22        -0.1036     -0.0953     -0.0072      0.0199      0.0884
        23        -0.0821      0.0597      0.0101      0.0104      0.0460
        24        -0.0290     -0.1641     -0.0030      0.0278      0.1222
        25        -0.0257      0.0310      0.0001      0.0016      0.0071
        26        -0.0647      0.0211     -0.0061      0.0047      0.0204
        27        -0.0427      0.0387      0.0060      0.0034      0.0146
        28        -0.0049      0.0177     -0.0109      0.0005      0.0020
        29         0.0113     -0.0069     -0.0032      0.0002      0.0008
        30         0.0035      0.0787      0.0023      0.0062      0.0267
        31         0.0026      0.0410      0.0073      0.0017      0.0075
        32        -0.0119      0.0273     -0.0019      0.0009      0.0038
        33        -0.0007     -0.0007      0.0001      0.0000      0.0000
        34         0.0152     -0.0186      0.0036      0.0006      0.0025
        35         0.0343     -0.0221      0.0074      0.0017      0.0072
        36        -0.0255      0.0318     -0.0030      0.0017      0.0071
        37         0.0267     -0.0052      0.0030      0.0008      0.0032
        38         0.0526     -0.0022      0.0107      0.0029      0.0122
        39         0.0326     -0.0370     -0.0083      0.0025      0.0105
        40         0.0024      0.0178      0.0034      0.0003      0.0014
        41         0.0180     -0.0104      0.0062      0.0005      0.0020
        42        -0.0208     -0.0305     -0.0078      0.0014      0.0059
        43        -0.0096     -0.0106      0.0014      0.0002      0.0009
        44        -0.0055      0.0179      0.0003      0.0004      0.0015
        45        -0.0218      0.0070     -0.0047      0.0005      0.0023
        46        -0.0030      0.0466      0.0117      0.0023      0.0096
        47        -0.0167      0.0257     -0.0007      0.0009      0.0039
        48         0.0426     -0.0390      0.0041      0.0034      0.0137
        49         0.0783     -0.0562      0.0048      0.0093      0.0380
        50        -0.0487      0.0161     -0.0010      0.0026      0.0107
        51         0.0456     -0.0149     -0.0008      0.0023      0.0093
        52        -0.0194     -0.0763     -0.0072      0.0062      0.0252
        53        -0.0116      0.0060     -0.0009      0.0002      0.0007
        54        -0.0066     -0.0425      0.0014      0.0019      0.0074
        55        -0.0391     -0.0157      0.0001      0.0018      0.0071
        56        -0.0109     -0.0058      0.0018      0.0002      0.0006
        57        -0.0057     -0.0041     -0.0012      0.0001      0.0002
        58        -0.0146     -0.0089     -0.0003      0.0003      0.0012
        59        -0.0437      0.0214     -0.0020      0.0024      0.0094
        60        -0.0064      0.0033     -0.0003      0.0001      0.0002
        61         0.0193      0.0380      0.0043      0.0018      0.0072
        62         0.0475      0.0693      0.0015      0.0071      0.0278
        63         0.0407     -0.0037      0.0006      0.0017      0.0066
        64         0.0443      0.0186      0.0021      0.0023      0.0091
        65         0.0366      0.0102      0.0024      0.0015      0.0057
        66        -0.0069     -0.0076     -0.0024      0.0001      0.0004
        67         0.0029      0.0037     -0.0023      0.0000      0.0001
        68         0.0007     -0.0064      0.0007      0.0000      0.0002
        69        -0.0202     -0.0190     -0.0014      0.0008      0.0030
        70        -0.0479      0.0033     -0.0040      0.0023      0.0090
        71         0.0943     -0.0131      0.0013      0.0091      0.0348
        72        -0.0935     -0.0785     -0.0026      0.0149      0.0562
        73         0.0070      0.0088      0.0013      0.0001      0.0005
        74         0.0054      0.0579     -0.0012      0.0034      0.0126
        75        -0.0051     -0.0082     -0.0069      0.0001      0.0005
 Ground to excited state transition magnetic dipole moments (Au):
       state          X           Y           Z
         1        -0.0128      0.0103     -0.7390
         2        -0.0048     -0.0287      0.1749
         3         0.0450      0.0440     -1.7912
         4        -0.0158     -0.0108     -0.1935
         5         0.0265      0.0147     -1.2623
         6         0.1065      0.2187      0.0010
         7        -0.0176      0.0069      0.1263
         8        -0.0041      0.0010      0.2342
         9         0.0171     -0.0361      0.2218
        10        -0.2138      0.1002      0.0307
        11        -0.0655     -0.0133     -0.1192
        12         0.0691      0.0112      0.0841
        13         0.0077      0.0467     -0.2106
        14         0.0126     -0.0005     -0.0792
        15         0.1171      0.0555     -0.0690
        16        -0.0654     -0.2130      0.0275
        17        -0.0762     -0.0645      0.1457
        18         0.0222     -0.1723      0.0060
        19         0.0665      0.1255      0.0082
        20         0.0191      0.0293     -0.0222
        21         0.0410      0.0628     -0.0624
        22        -0.0234     -0.0155      0.1513
        23        -0.0400      0.1841     -0.3130
        24        -0.1238      0.0804     -0.1140
        25        -0.0921      0.0768     -0.0031
        26         0.0474      0.0155     -0.1796
        27         0.1885     -0.0420     -0.1829
        28        -0.1809      0.0799      0.0303
        29        -0.0056      0.0487      0.0612
        30         0.0798      0.1012     -0.1133
        31         0.0156     -0.0336     -0.0947
        32        -0.0337      0.0191      0.0481
        33         0.0698      0.0084      0.0593
        34        -0.2046     -0.2617     -0.2024
        35        -0.0602      0.1238      0.0400
        36        -0.0383     -0.1824      0.1184
        37         0.1255      0.3385      0.0187
        38        -0.0907     -0.0413      0.0241
        39         0.1695     -0.2127      0.0890
        40         0.0317      0.2343     -0.0087
        41         0.1143     -0.0965     -0.0643
        42        -0.0958      0.0163     -0.0391
        43        -0.3984      0.2396     -0.1284
        44        -0.3542     -0.0372      0.0864
        45         0.0355      0.0891      0.0802
        46         0.1068     -0.0416     -0.0547
        47        -0.0389     -0.0008      0.0470
        48        -0.0102     -0.0545     -0.0321
        49        -0.0217     -0.0010      0.0814
        50        -0.0395      0.1406     -0.0006
        51         0.0469     -0.0442     -0.0285
        52         0.0112      0.0319     -0.1590
        53         0.0428     -0.0403     -0.0248
        54        -0.0137     -0.0246     -0.0392
        55         0.0110      0.0259      0.0080
        56         0.0194      0.0247     -0.3820
        57        -0.0598      0.0158      0.0266
        58         0.0143      0.0062      0.0240
        59        -0.0546      0.0082     -0.0094
        60         0.0382      0.0081     -0.0210
        61         0.0546      0.0572     -0.0271
        62         0.1075      0.0072      0.0798
        63         0.0108     -0.0057      0.0949
        64        -0.1305      0.0078      0.1245
        65        -0.0508      0.0706      0.0379
        66        -0.0552     -0.0062     -0.0606
        67        -0.0309      0.0405      0.0500
        68        -0.0049      0.0000      0.0220
        69        -0.0494     -0.0219     -0.1110
        70        -0.0026     -0.0685     -0.0350
        71         0.1164      0.0324     -0.2186
        72         0.0520      0.0297     -0.1585
        73         0.0420     -0.0497      0.0933
        74         0.1964     -0.0614     -1.1984
        75        -0.0866      0.0040      0.1333
 Ground to excited state transition velocity quadrupole moments (Au):
       state          XX          YY          ZZ          XY          XZ          YZ
         1        -0.0027      0.2202     -0.0020     -0.0312      0.0085     -0.0017
         2         0.0112      0.1240      0.0174      0.1182      0.0055      0.0146
         3        -0.1143     -0.1315     -0.0041     -0.2359     -0.0085     -0.0227
         4        -0.0967      0.1982      0.0066      0.3054      0.0082      0.0172
         5        -0.0234     -0.0090     -0.0049     -0.0399      0.0017     -0.0114
         6        -0.0384     -0.0623      0.0011     -0.0656     -0.0091     -0.0058
         7         0.4475      0.5635      0.0029      0.3796      0.0277      0.0460
         8        -0.3162     -0.1757     -0.0164     -1.0348     -0.0354     -0.0900
         9        -0.2443     -0.3689      0.0458     -0.1518     -0.0330     -0.0200
        10        -0.0087     -0.0027     -0.0011     -0.0515     -0.0019     -0.0100
        11         0.1905      0.4079     -0.0025      0.3202      0.0303      0.0365
        12         0.5222     -0.8629     -0.0080     -1.2192     -0.0139     -0.0678
        13        -0.7315      0.1263     -0.0182      0.2465     -0.0343     -0.0145
        14        -0.8989      0.1470     -0.0096     -0.7144     -0.0223     -0.0446
        15        -0.3790     -0.2508     -0.0175     -0.9852     -0.0533     -0.0294
        16        -0.0285     -0.0113      0.0037     -0.0982      0.1223     -0.0525
        17        -0.3801      0.0935     -0.0158      0.0658      0.0479     -0.0132
        18         0.4380      0.2288      0.0258     -0.0951      0.0689     -0.0256
        19         0.3918      0.1380      0.0211      0.1844     -0.0805      0.0294
        20        -0.0902     -0.2966     -0.0071     -0.2312     -0.0069     -0.0026
        21         0.4271     -0.2563      0.0061     -0.1494      0.0269      0.0150
        22         0.2663      0.2493      0.0097      0.6371      0.0524      0.0355
        23        -0.0442     -0.0221     -0.0173     -0.1458     -0.1096     -0.0705
        24         0.1971      0.7914     -0.0053      0.4120     -0.0140      0.0216
        25        -0.7755      0.0647     -0.0301      0.6887     -0.0146      0.0042
        26        -0.9037      0.2164     -0.0118     -0.1009     -0.0256      0.0560
        27        -0.0594     -0.1743      0.0035     -0.1979      0.0233      0.0567
        28         0.0318     -0.1230     -0.0017      0.0748     -0.0342     -0.1194
        29        -0.0485      0.3168      0.0076      0.4169      0.0503      0.0512
        30         0.0795     -0.1402      0.0155     -0.2361     -0.0767     -0.0225
        31        -0.8466      0.0458     -0.0225     -0.1333     -0.0248      0.0290
        32        -0.0562     -0.1291     -0.0012      0.0815      0.0331     -0.0821
        33         0.5272     -0.1692      0.0139     -0.2847      0.0225      0.0029
        34        -0.1235      0.2289     -0.0131      0.1791     -0.0654     -0.0531
        35        -0.2353      0.3184     -0.0091      0.2951     -0.0070     -0.0098
        36        -0.0555      0.0861      0.0193      0.1780      0.0493      0.0813
        37        -0.3320      0.0707     -0.0111      0.0636     -0.0034     -0.0154
        38         0.1656      0.1426      0.0007      0.0838      0.0219     -0.0197
        39        -0.1901     -0.2390      0.0107     -0.3966      0.0562      0.0756
        40         0.0311      0.0339      0.0050      0.0214     -0.0703      0.0279
        41         0.1597     -0.7000     -0.0175     -0.4594     -0.0430     -0.0532
        42         0.1764     -0.1632     -0.0011     -0.0953      0.0985     -0.0197
        43         0.2663     -0.4177      0.0028     -0.2542     -0.0611      0.0319
        44        -0.2754      0.1882     -0.0092      0.1684      0.0534     -0.0187
        45         0.3383     -0.4150     -0.0014     -0.1995     -0.0576     -0.0588
        46         0.0696     -0.2783      0.0014     -0.0414      0.0598      0.0359
        47        -0.0191     -0.1121     -0.0078      0.0238     -0.0029     -0.0867
        48         0.2330     -0.4407     -0.0001     -0.3279      0.0826     -0.0223
        49         0.2466      0.3924     -0.0028      0.1333     -0.0084      0.0143
        50         0.0304     -0.0118      0.0037      0.1355      0.0309     -0.0072
        51         0.3164     -0.1915      0.0112      0.5326      0.0510      0.0614
        52        -0.1826      0.1579     -0.0225      0.1269      0.0103      0.0139
        53        -0.0872     -0.0309      0.0061     -0.2016      0.0041      0.0026
        54         0.2266      0.0951      0.0050      0.2162     -0.0415      0.0177
        55        -0.5921      0.3314     -0.0193     -0.6370     -0.0585     -0.0537
        56         0.1994     -0.2339      0.0009     -0.0348     -0.0293     -0.0033
        57        -0.3937      0.2446     -0.0320      0.1397     -0.0131      0.0004
        58        -0.0684     -0.2267     -0.0059     -0.3028     -0.0089     -0.0158
        59         0.0831     -0.0247      0.0044     -0.0034      0.0021     -0.0077
        60        -0.1095      0.0220     -0.0184      0.0843     -0.0135      0.0161
        61        -0.2749     -0.1403     -0.0049     -0.2777     -0.0069     -0.0104
        62        -0.2589     -0.4172      0.0034     -0.3027      0.0059      0.0025
        63         0.2329      0.0138      0.0085      0.0062      0.0060      0.0037
        64        -0.1449      0.0686      0.0151     -0.3467     -0.0083     -0.0337
        65        -0.0805     -0.1628     -0.0236     -0.2030     -0.0117     -0.0103
        66        -0.0847     -0.1249     -0.0019      0.1843      0.0074      0.0044
        67        -0.2408      0.3703     -0.0008      0.1511     -0.0384      0.0014
        68        -0.1183     -0.0299     -0.0398     -0.0547     -0.0141      0.0164
        69         0.3246      0.2748      0.0036      0.2078     -0.0049     -0.0064
        70         0.3643     -0.4132      0.0023     -0.0510      0.0168      0.0189
        71        -0.3279     -0.7630     -0.0149     -1.1699     -0.0124     -0.0351
        72         0.0721      0.4299     -0.0058      0.2815      0.0021      0.0246
        73         0.1195      0.0135      0.0046      0.0962      0.0528      0.0635
        74        -0.6049     -0.5022     -0.0294     -0.1920      0.0121     -0.0022
        75         0.1804      0.1349      0.0098      0.0900      0.0397     -0.0823
 <0|del|b> * <b|rxdel|0> + <0|del|b> * <b|delr+rdel|0>
 Rotatory Strengths (R) in cgs (10**-40 erg-esu-cm/Gauss)
       state          XX          YY          ZZ    R(velocity)    E-M Angle
         1         0.0463     -3.0036     -6.5272     -3.1615       91.17
         2        -1.0557     -0.8075      1.5566     -0.1022       90.00
         3        -4.7794     -4.7499      5.8102     -1.2397       90.74
         4         0.7186      3.2783      3.1508      2.3826       81.11
         5        -2.1778     -1.3651      0.3697     -1.0577       92.00
         6         8.8025      4.6989     13.3369      8.9461       24.34
         7        -4.3338     -3.8138     13.1117      1.6547       84.95
         8       -27.9583    -66.9275    102.6931      2.6024       89.22
         9        -1.8137      8.2427    -69.3907    -20.9872       97.08
        10        -2.3821    -15.0498    -16.4874    -11.3064      163.53
        11         6.0574     -5.4101    -26.1897     -8.5142      109.71
        12       -11.1725     11.3655     -0.5586     -0.1219       90.00
        13        25.6856     -0.2328      0.1480      8.5336       80.48
        14        -5.1393      0.8489      7.8744      1.1947       86.19
        15        -3.7221     -8.9936    -15.7870     -9.5009      150.64
        16        -5.4395     13.5610      0.1400      2.7538       78.61
        17        11.0596     -4.5832     -1.8726      1.5346       83.02
        18       -17.7414     -0.8087     -6.8466     -8.4656      156.51
        19         2.8223     -4.9597     -0.5675     -0.9017      107.92
        20        -0.3810      1.4247      1.2790      0.7743       55.30
        21        -3.2561      6.7457     -2.3248      0.3883       87.29
        22         1.8518      5.2929      6.0979      4.4142       82.57
        23        30.2851     17.3282      4.5476     17.3870       72.63
        24       -38.2183     10.5464    -15.6285    -14.4335      107.36
        25         6.8112      5.0285     10.2356      7.3584       10.66
        26         5.9907    -14.3997      0.8008     -2.5361       97.40
        27       -11.1101    -23.9160    -14.6315    -16.5525      134.38
        28         1.9989      4.4941      2.5515      3.0148       62.57
        29        -3.5194      3.8106     -3.0203     -0.9097      124.08
        30        30.0652      1.1103      5.2282     12.1346       53.83
        31        -4.6331      0.9070     -5.5218     -3.0826      118.62
        32        -1.4192      3.2549      1.9216      1.2525       63.21
        33        -0.0261     -0.0396     -0.1505     -0.0721       90.00
        34         8.0199    -11.8676      8.5167      1.5563       83.69
        35        -0.9138     -9.5998     -9.6411     -6.7182      139.25
        36       -18.4710     -2.0582     -2.6508     -7.7267      125.00
        37        -3.4354      6.2811      4.5161      2.4539       80.43
        38         2.8944    -14.4146     -8.2512     -6.5905      143.40
        39        27.8873      8.8125     19.7420     18.8139       27.84
        40        12.1100      0.0874      6.4879      6.2284       12.73
        41        -5.9776      7.8735      9.8801      3.9253       41.14
        42         7.8486      4.3309     -4.2366      2.6476       62.91
        43        -8.2324      8.1452      4.9260      1.6129       80.88
        44        -3.4138      4.4710      4.7074      1.9215       79.02
        45         3.4985     -1.7704     -4.0326     -0.7682      100.33
        46       -12.8216     -1.2871      1.3843     -4.2414      118.37
        47         0.0016      4.5480     -1.9563      0.8644       71.50
        48         8.3793     -0.3498     -1.2576      2.2573       65.16
        49         1.3061     -1.7932     -4.9622     -1.8164       98.90
        50         3.5056      5.2088      9.3357      6.0167       56.03
        51         2.1771     11.5634     -1.6405      4.0333       33.55
        52        -3.0426      3.3542     -6.7909     -2.1598       96.76
        53        -0.1591     -1.4415     -1.4593     -1.0200      149.19
        54        -1.0015     -0.8215      6.4091      1.5287       58.67
        55        -2.9481      3.6808     -4.2661     -1.1778      132.69
        56        -2.2747     -1.7123     -0.4656     -1.4842      102.70
        57        -0.6815      1.0099      0.7014      0.3433       59.30
        58        -0.1198     -0.1433     -0.8747     -0.3792      123.53
        59         0.3296      5.7480      4.7666      3.6147       18.89
        60         0.1056     -0.6557     -0.3337     -0.2946      131.18
        61         2.3244      4.0560      6.6164      4.3322       29.71
        62        -0.5061     12.1110     12.3127      7.9725       59.44
        63         0.2063      1.3296      0.6023      0.7128       82.47
        64        -0.3314    -13.1175     -8.9506     -7.4665      128.29
        65         0.9247     -3.4577     -1.8391     -1.4573      106.90
        66        -0.3972      1.9462      0.8392      0.7961       48.61
        67        -0.3404      0.2976     -0.1761     -0.0730       90.00
        68        -0.2299      0.1218      0.1528      0.0149       90.00
        69         0.3824      3.2627      2.8396      2.1615       62.69
        70         0.1333     -1.7327      1.7721      0.0576       90.00
        71        -4.7878     18.0600     28.5313     13.9345       64.42
        72        -4.9528    -12.0541    -10.1207     -9.0425      109.15
        73        -1.2956      1.4684     -0.2477     -0.0250       90.00
        74        -5.1017      4.4506     -3.5230     -1.3913       90.86
        75        -2.4819      1.1130     -0.6629     -0.6773      105.79
 1/2[<0|r|b>*<b|rxdel|0> + (<0|rxdel|b>*<b|r|0>)*]
 Rotatory Strengths (R) in cgs (10**-40 erg-esu-cm/Gauss)
       state          XX          YY          ZZ     R(length)
         1        -6.2858     -4.4395      3.8156     -2.3032
         2         0.3506      1.5547     -3.6403     -0.5783
         3         5.1750      5.2186    -19.0985     -2.9016
         4         2.9623      1.8234      3.0154      2.6004
         5         1.2730     -0.8656     -4.1257     -1.2394
         6        10.1956     17.3590      0.0024      9.1857
         7         7.8959     -0.3590     -2.8134      1.5745
         8       -10.1851      0.1360     19.5378      3.1629
         9         7.3171    -82.5490     11.4772    -21.2516
        10       -31.0174     -4.2978      0.4314    -11.6279
        11       -30.5218      4.3638      0.9264     -8.4105
        12        -1.5003     -1.2116      1.1621     -0.5166
        13        -2.8001     30.1032     -2.2264      8.3589
        14         6.0929     -0.2675     -2.1721      1.2178
        15       -24.7008     -4.2722     -0.1896     -9.7209
        16        11.9907     -5.1142      1.2446      2.7070
        17        -8.6158     12.7982      0.8565      1.6796
        18         0.9465    -26.5202     -0.1106     -8.5614
        19         0.1537     -2.7893      0.3978     -0.7459
        20         1.8370      0.5465     -0.2080      0.7252
        21         9.2589     -7.1399     -0.2176      0.6338
        22        11.7061      6.8306     -6.1885      4.1161
        23        16.0881     52.5359    -16.0103     17.5379
        24        18.3766    -62.2988      1.6807    -14.0805
        25        10.5000     10.8819      0.0079      7.1300
        26       -15.2200      1.6712      4.0949     -3.1513
        27       -32.6209     -7.4036     -4.4805    -14.8350
        28         1.6477      6.1808     -1.4731      2.1185
        29        -0.3074     -1.7197     -0.1124     -0.7132
        30         1.4604     37.3424     -0.7943     12.6695
        31         0.2925     -6.4660     -2.1468     -2.7734
        32         1.8300      2.4069     -0.1747      1.3541
        33        -0.1851     -0.0238      0.0387     -0.0567
        34       -14.1118     22.2482     -4.5253      1.2037
        35        -9.5433    -12.1419      1.0432     -6.8806
        36         4.1715    -26.6185     -3.1780     -8.5417
        37        14.7704     -9.5750      0.2051      1.8002
        38       -21.7618      0.5027      0.4455     -6.9378
        39        24.1061     35.9085     -3.3518     18.8876
        40         0.5819     16.7720     -0.1625      5.7305
        41         8.9973      4.9826     -1.8232      4.0522
        42         8.6895     -2.0962      1.1626      2.5853
        43        17.2846    -11.6817     -0.9567      1.5487
        44         8.8942     -2.6237      0.1457      2.1387
        45        -3.2941      2.3246     -1.6105     -0.8600
        46        -3.4439     -8.6405     -2.6414     -4.9086
        47         2.9311     -0.0902     -0.1427      0.8994
        48        -1.9546      9.3473     -0.6813      2.2371
        49        -7.5012      0.2458      1.6094     -1.8820
        50         8.6255      9.9044      0.0023      6.1774
        51         9.4171      2.9745      0.1591      4.1836
        52        -0.8348    -10.4962      5.6995     -1.8772
        53        -2.5314     -1.2219      0.0372     -1.2387
        54         0.3497      4.2717     -0.1687      1.4843
        55        -1.8406     -1.5970     -0.0229     -1.1535
        56        -0.7046     -0.6153     -6.4246     -2.5815
        57         0.5858     -0.2891     -0.1605      0.0454
        58        -0.8486     -0.2613      0.0444     -0.3551
        59         9.9705      0.8238      0.0672      3.6205
        60        -0.5220      0.0202     -0.0229     -0.1749
        61         4.6945      9.4536     -0.4570      4.5637
        62        22.3694      2.1430      0.5860      8.3661
        63         1.9204      0.0948      0.1599      0.7250
        64       -26.2377      0.6342      1.0957     -8.1693
        65        -7.3354      2.2984      0.3248     -1.5707
        66         2.0074      0.1355      0.6223      0.9217
        67        -0.0713      1.4398     -0.5062      0.2874
        68         0.0653      0.0002      0.0388      0.0348
        69         4.6399      1.7985      0.3966      2.2783
        70         0.5272     -0.8165      0.7524      0.1543
        71        46.0435     -1.3203     -0.7714     14.6506
        72       -19.4144     -9.5710      1.4182     -9.1891
        73         0.9420     -1.8324      0.5094     -0.1270
        74         3.6187    -14.3815      2.3845     -2.7928
        75         2.1145     -0.1275     -4.3535     -0.7888
  1/2[<0|del|b>*<b|r|0> + (<0|r|b>*<b|del|0>)*] (Au)
       state          X           Y           Z        Dip. S.   Osc.(frdel)
         1        -0.0398     -0.0316      0.0000      0.0714      0.0476
         2        -0.0010     -0.0007     -0.0001      0.0017      0.0012
         3        -0.0024     -0.0026      0.0000      0.0051      0.0034
         4        -0.0067     -0.0053      0.0000      0.0120      0.0080
         5        -0.0004     -0.0007      0.0000      0.0012      0.0008
         6        -0.0020     -0.0014      0.0000      0.0034      0.0022
         7        -0.0447     -0.0006     -0.0001      0.0453      0.0302
         8        -1.4111     -0.0036     -0.0015      1.4162      0.9441
         9        -0.0418     -1.2069     -0.0006      1.2493      0.8329
        10        -0.0049     -0.0004     -0.0001      0.0054      0.0036
        11        -0.0553     -0.0256      0.0000      0.0809      0.0540
        12        -0.0001     -0.0030     -0.0001      0.0031      0.0021
        13        -0.0338     -0.1108      0.0000      0.1446      0.0964
        14        -0.0649     -0.0715     -0.0002      0.1366      0.0911
        15        -0.0130     -0.0013      0.0000      0.0144      0.0096
        16        -0.0096     -0.0002     -0.0006      0.0104      0.0069
        17        -0.0036     -0.0108      0.0000      0.0144      0.0096
        18        -0.0005     -0.0069     -0.0001      0.0075      0.0050
        19         0.0000     -0.0002     -0.0008      0.0010      0.0006
        20        -0.0027     -0.0001      0.0000      0.0029      0.0019
        21        -0.0151     -0.0040      0.0000      0.0191      0.0127
        22        -0.0734     -0.0595     -0.0004      0.1333      0.0889
        23        -0.0467     -0.0241     -0.0007      0.0715      0.0477
        24        -0.0061     -0.1797     -0.0001      0.1859      0.1239
        25        -0.0041     -0.0062      0.0000      0.0104      0.0069
        26        -0.0294     -0.0032     -0.0002      0.0328      0.0219
        27        -0.0104     -0.0096     -0.0002      0.0203      0.0135
        28        -0.0001     -0.0019     -0.0008      0.0028      0.0018
        29        -0.0009     -0.0003      0.0000      0.0012      0.0008
        30        -0.0001     -0.0410      0.0000      0.0412      0.0274
        31        -0.0001     -0.0112     -0.0002      0.0115      0.0076
        32        -0.0009     -0.0049      0.0000      0.0058      0.0039
        33         0.0000      0.0000      0.0000      0.0000      0.0000
        34        -0.0015     -0.0022     -0.0001      0.0038      0.0026
        35        -0.0077     -0.0031     -0.0003      0.0110      0.0073
        36        -0.0039     -0.0066     -0.0001      0.0106      0.0071
        37        -0.0045     -0.0002      0.0000      0.0047      0.0031
        38        -0.0179      0.0000     -0.0003      0.0182      0.0121
        39        -0.0066     -0.0088     -0.0004      0.0159      0.0106
        40        -0.0001     -0.0018     -0.0001      0.0019      0.0013
        41        -0.0020     -0.0008     -0.0002      0.0030      0.0020
        42        -0.0027     -0.0055     -0.0003      0.0085      0.0057
        43        -0.0006     -0.0007      0.0000      0.0013      0.0009
        44        -0.0002     -0.0018      0.0000      0.0020      0.0013
        45        -0.0029     -0.0003     -0.0001      0.0033      0.0022
        46        -0.0001     -0.0137     -0.0008      0.0146      0.0097
        47        -0.0018     -0.0039      0.0000      0.0057      0.0038
        48        -0.0116     -0.0095     -0.0001      0.0211      0.0141
        49        -0.0382     -0.0199     -0.0001      0.0583      0.0389
        50        -0.0150     -0.0016      0.0000      0.0166      0.0111
        51        -0.0130     -0.0014      0.0000      0.0144      0.0096
        52        -0.0020     -0.0354     -0.0004      0.0379      0.0252
        53        -0.0010     -0.0003      0.0000      0.0012      0.0008
        54        -0.0002     -0.0105      0.0000      0.0107      0.0071
        55        -0.0092     -0.0014      0.0000      0.0106      0.0071
        56        -0.0006     -0.0002      0.0000      0.0008      0.0005
        57        -0.0001     -0.0001      0.0000      0.0002      0.0001
        58        -0.0012     -0.0005      0.0000      0.0018      0.0012
        59        -0.0113     -0.0030      0.0000      0.0143      0.0096
        60        -0.0001      0.0000      0.0000      0.0001      0.0001
        61        -0.0024     -0.0089     -0.0001      0.0113      0.0076
        62        -0.0140     -0.0290      0.0000      0.0430      0.0287
        63        -0.0102     -0.0001      0.0000      0.0103      0.0069
        64        -0.0126     -0.0022      0.0000      0.0148      0.0098
        65        -0.0075     -0.0005      0.0000      0.0080      0.0053
        66        -0.0004     -0.0002      0.0000      0.0006      0.0004
        67         0.0000     -0.0002      0.0000      0.0002      0.0002
        68         0.0000     -0.0003      0.0000      0.0003      0.0002
        69        -0.0027     -0.0022      0.0000      0.0049      0.0033
        70        -0.0136     -0.0001     -0.0001      0.0138      0.0092
        71        -0.0527     -0.0008      0.0000      0.0535      0.0357
        72        -0.0494     -0.0358      0.0000      0.0852      0.0568
        73        -0.0002     -0.0005      0.0000      0.0007      0.0005
        74        -0.0001     -0.0192      0.0000      0.0193      0.0129
        75        -0.0002     -0.0004     -0.0003      0.0009      0.0006

 Excitation energies and oscillator strengths:
 
 Excited State   1:      Singlet-A      2.3647 eV  524.31 nm  f=0.0497  <S**2>=0.000
     233 -> 236       -0.37224
     234 -> 235        0.59535
 This state for optimization and/or second-order correction.
 Total Energy, E(TD-HF/TD-DFT) =  -3916.26259441    
 Copying the excited state density for this state as the 1-particle RhoCI density.
 
 Excited State   2:      Singlet-A      2.4336 eV  509.47 nm  f=0.0010  <S**2>=0.000
     233 -> 235        0.50632
     234 -> 236        0.48882
 
 Excited State   3:      Singlet-A      2.5943 eV  477.90 nm  f=0.0035  <S**2>=0.000
     231 -> 236        0.14299
     232 -> 235        0.68016
 
 Excited State   4:      Singlet-A      2.7073 eV  457.96 nm  f=0.0085  <S**2>=0.000
[...]
 Alpha virt. eigenvalues --    0.31356   0.31445   0.31806   0.31836   0.31955
 Alpha virt. eigenvalues --    0.32309   0.32420   0.32583   0.32682   0.32873
 Alpha virt. eigenvalues --    0.33125   0.33530   0.33577   0.33892   0.34010
 Alpha virt. eigenvalues --    0.34195   0.34305   0.34457   0.34544   0.34634
 Alpha virt. eigenvalues --    0.34791   0.34986   0.35185   0.35335   0.35534
 Alpha virt. eigenvalues --    0.35697   0.35887   0.36086   0.36178   0.36357
 Alpha virt. eigenvalues --    0.36404   0.36564   0.36688   0.36911   0.36981
 Alpha virt. eigenvalues --    0.37190   0.37198   0.37365   0.37408   0.37473
 Alpha virt. eigenvalues --    0.37680   0.37876   0.37946   0.38183   0.38338
 Alpha virt. eigenvalues --    0.38421   0.38499   0.38904   0.38961   0.39114
 Alpha virt. eigenvalues --    0.39208   0.39298   0.39480   0.39663   0.39795
 Alpha virt. eigenvalues --    0.39971   0.40248   0.40432   0.40620   0.40707
 Alpha virt. eigenvalues --    0.40761   0.41129   0.41272   0.41349   0.41579
 Alpha virt. eigenvalues --    0.41866   0.41996   0.42125   0.42400   0.42897
 Alpha virt. eigenvalues --    0.42961   0.43055   0.43175   0.43504   0.43599
 Alpha virt. eigenvalues --    0.43925   0.44185   0.44376   0.44690   0.44833
 Alpha virt. eigenvalues --    0.45155   0.45262   0.45727   0.45814   0.46058
 Alpha virt. eigenvalues --    0.46254   0.46804   0.47026   0.47327   0.47618
 Alpha virt. eigenvalues --    0.47811   0.48521   0.48945   0.49158   0.49284
 Alpha virt. eigenvalues --    0.49789   0.50105   0.50539   0.50857   0.50985
 Alpha virt. eigenvalues --    0.51218   0.51578   0.51737   0.51942   0.51997
 Alpha virt. eigenvalues --    0.52166   0.52225   0.52359   0.52917   0.53152
 Alpha virt. eigenvalues --    0.53622   0.53936   0.54111   0.54381   0.54461
 Alpha virt. eigenvalues --    0.54960   0.55438   0.55887   0.56414   0.56763
 Alpha virt. eigenvalues --    0.56879   0.57467   0.58008   0.58204   0.58754
 Alpha virt. eigenvalues --    0.59050   0.59476   0.59824   0.59996   0.60915
 Alpha virt. eigenvalues --    0.61430   0.61583   0.61626   0.61971   0.62754
 Alpha virt. eigenvalues --    0.62923   0.64333   0.64800   0.65043   0.66110
 Alpha virt. eigenvalues --    0.66760   0.67028   0.67681   0.68306   0.69047
 Alpha virt. eigenvalues --    0.69132   0.69330   0.69560   0.69805   0.70249
 Alpha virt. eigenvalues --    0.70371   0.70510   0.70815   0.70929   0.71156
 Alpha virt. eigenvalues --    0.71477   0.71865   0.72486   0.72815   0.73273
 Alpha virt. eigenvalues --    0.73428   0.73790   0.73988   0.74232   0.74954
 Alpha virt. eigenvalues --    0.75122   0.75462   0.76041   0.76149   0.76550
 Alpha virt. eigenvalues --    0.76789   0.76919   0.77038   0.77543   0.78004
 Alpha virt. eigenvalues --    0.78626   0.79401   0.79798   0.79892   0.80366
 Alpha virt. eigenvalues --    0.80391   0.80960   0.81313   0.81400   0.81455
 Alpha virt. eigenvalues --    0.81873   0.82133   0.82214   0.82276   0.83010
 Alpha virt. eigenvalues --    0.83280   0.83576   0.83846   0.84016   0.84270
 Alpha virt. eigenvalues --    0.84831   0.85077   0.85203   0.85570   0.85785
 Alpha virt. eigenvalues --    0.85839   0.86346   0.86548   0.87471   0.87935
 Alpha virt. eigenvalues --    0.88318   0.89141   0.89685   0.90203   0.90372
 Alpha virt. eigenvalues --    0.90729   0.90952   0.91235   0.91406   0.91748
 Alpha virt. eigenvalues --    0.92090   0.92435   0.92482   0.93006   0.93724
 Alpha virt. eigenvalues --    0.93858   0.94116   0.94474   0.94968   0.95353
 Alpha virt. eigenvalues --    0.95824   0.96059   0.96306   0.96666   0.97246
 Alpha virt. eigenvalues --    0.97540   0.97843   0.98304   0.98569   0.99112
 Alpha virt. eigenvalues --    0.99189   1.00169   1.00347   1.00898   1.02173
 Alpha virt. eigenvalues --    1.02565   1.03127   1.03448   1.03951   1.04046
 Alpha virt. eigenvalues --    1.05745   1.06734   1.07703   1.07897   1.08044
 Alpha virt. eigenvalues --    1.08396   1.08623   1.09506   1.10116   1.10394
 Alpha virt. eigenvalues --    1.10864   1.11008   1.11337   1.12328   1.12573
 Alpha virt. eigenvalues --    1.13256   1.13737   1.14045   1.14504   1.14599
 Alpha virt. eigenvalues --    1.14761   1.15265   1.15369   1.15970   1.16099
 Alpha virt. eigenvalues --    1.16816   1.17497   1.17715   1.18359   1.18857
 Alpha virt. eigenvalues --    1.19176   1.19460   1.19861   1.20525   1.21582
 Alpha virt. eigenvalues --    1.21716   1.21888   1.22010   1.22404   1.22628
 Alpha virt. eigenvalues --    1.23342   1.23596   1.23906   1.24287   1.24565
 Alpha virt. eigenvalues --    1.24691   1.25109   1.25734   1.26013   1.26310
 Alpha virt. eigenvalues --    1.26875   1.27097   1.27163   1.27287   1.27367
 Alpha virt. eigenvalues --    1.27805   1.28024   1.28116   1.28301   1.28739
 Alpha virt. eigenvalues --    1.29051   1.29184   1.29253   1.29603   1.29684
 Alpha virt. eigenvalues --    1.29876   1.29951   1.30343   1.30667   1.30948
 Alpha virt. eigenvalues --    1.30990   1.31373   1.31526   1.31956   1.32102
 Alpha virt. eigenvalues --    1.32396   1.32739   1.33348   1.33680   1.34096
 Alpha virt. eigenvalues --    1.34300   1.34705   1.34982   1.35335   1.35534
 Alpha virt. eigenvalues --    1.36314   1.36420   1.37296   1.37705   1.37743
 Alpha virt. eigenvalues --    1.38180   1.38554   1.38973   1.38995   1.39809
 Alpha virt. eigenvalues --    1.40416   1.40670   1.41269   1.41603   1.42430
 Alpha virt. eigenvalues --    1.43255   1.43649   1.44415   1.44641   1.45046
 Alpha virt. eigenvalues --    1.45622   1.46323   1.47496   1.47800   1.49147
 Alpha virt. eigenvalues --    1.49945   1.51247   1.51822   1.54538   1.54792
 Alpha virt. eigenvalues --    1.55741   1.56083   1.56575   1.56772   1.57549
 Alpha virt. eigenvalues --    1.58132   1.58458   1.58890   1.59304   1.59510
 Alpha virt. eigenvalues --    1.59739   1.59855   1.60488   1.60633   1.60901
 Alpha virt. eigenvalues --    1.61128   1.61139   1.61541   1.61636   1.61710
 Alpha virt. eigenvalues --    1.61909   1.62023   1.62287   1.62481   1.62791
 Alpha virt. eigenvalues --    1.62872   1.63680   1.63706   1.63810   1.64064
 Alpha virt. eigenvalues --    1.64566   1.64619   1.64927   1.64979   1.65598
 Alpha virt. eigenvalues --    1.65928   1.66407   1.66426   1.66728   1.67251
 Alpha virt. eigenvalues --    1.67556   1.67913   1.68093   1.68122   1.68393
 Alpha virt. eigenvalues --    1.68846   1.68929   1.69255   1.69915   1.70121
 Alpha virt. eigenvalues --    1.70363   1.70377   1.70857   1.71357   1.71633
 Alpha virt. eigenvalues --    1.72154   1.72261   1.72484   1.72568   1.72708
 Alpha virt. eigenvalues --    1.72879   1.72957   1.74560   1.74927   1.75043
 Alpha virt. eigenvalues --    1.75235   1.75482   1.75626   1.75746   1.75888
 Alpha virt. eigenvalues --    1.76022   1.76285   1.76453   1.76615   1.77118
 Alpha virt. eigenvalues --    1.77334   1.77364   1.77650   1.77761   1.77791
 Alpha virt. eigenvalues --    1.78085   1.78500   1.78593   1.78708   1.78773
 Alpha virt. eigenvalues --    1.78894   1.79202   1.79608   1.80231   1.80407
 Alpha virt. eigenvalues --    1.80860   1.81191   1.81272   1.81333   1.81406
 Alpha virt. eigenvalues --    1.81697   1.81893   1.82085   1.82117   1.82419
 Alpha virt. eigenvalues --    1.82725   1.82921   1.83152   1.83533   1.83786
 Alpha virt. eigenvalues --    1.84438   1.84469   1.84862   1.85284   1.85473
 Alpha virt. eigenvalues --    1.85777   1.86100   1.86260   1.86774   1.86804
 Alpha virt. eigenvalues --    1.87280   1.87404   1.87676   1.87813   1.88125
 Alpha virt. eigenvalues --    1.88485   1.88869   1.89111   1.89311   1.89416
 Alpha virt. eigenvalues --    1.89769   1.89870   1.90491   1.90584   1.91244
 Alpha virt. eigenvalues --    1.91376   1.91995   1.92357   1.92481   1.92707
 Alpha virt. eigenvalues --    1.92940   1.93345   1.93710   1.93792   1.94149
 Alpha virt. eigenvalues --    1.95208   1.95400   1.95687   1.95966   1.96173
 Alpha virt. eigenvalues --    1.96801   1.97021   1.97375   1.97824   1.98244
 Alpha virt. eigenvalues --    1.98434   1.98492   1.98976   2.00184   2.00818
 Alpha virt. eigenvalues --    2.01355   2.01900   2.02090   2.02399   2.03437
 Alpha virt. eigenvalues --    2.03811   2.04558   2.05433   2.06328   2.06631
 Alpha virt. eigenvalues --    2.07157   2.07645   2.07717   2.08306   2.08520
 Alpha virt. eigenvalues --    2.08660   2.09788   2.10510   2.11964   2.12655
 Alpha virt. eigenvalues --    2.13179   2.13300   2.13735   2.13906   2.14047
 Alpha virt. eigenvalues --    2.14553   2.15327   2.15788   2.16263   2.17290
 Alpha virt. eigenvalues --    2.19116   2.19372   2.20015   2.20305   2.20358
 Alpha virt. eigenvalues --    2.20548   2.20923   2.21012   2.21298   2.21559
 Alpha virt. eigenvalues --    2.21870   2.22617   2.22908   2.23011   2.23278
 Alpha virt. eigenvalues --    2.23402   2.23611   2.23799   2.24340   2.24511
 Alpha virt. eigenvalues --    2.25282   2.25888   2.26622   2.26675   2.27415
 Alpha virt. eigenvalues --    2.27847   2.28370   2.28623   2.29334   2.29553
 Alpha virt. eigenvalues --    2.30026   2.30159   2.31504   2.31747   2.31930
 Alpha virt. eigenvalues --    2.32019   2.32273   2.32429   2.33025   2.33157
 Alpha virt. eigenvalues --    2.33256   2.33595   2.33911   2.34217   2.34630
 Alpha virt. eigenvalues --    2.35081   2.35617   2.35766   2.35903   2.36408
 Alpha virt. eigenvalues --    2.36451   2.36777   2.37130   2.37670   2.37760
 Alpha virt. eigenvalues --    2.38950   2.38999   2.39493   2.39881   2.39962
 Alpha virt. eigenvalues --    2.40056   2.40237   2.41044   2.41511   2.41942
 Alpha virt. eigenvalues --    2.42630   2.42901   2.44499   2.44646   2.45028
 Alpha virt. eigenvalues --    2.45423   2.46139   2.46732   2.47013   2.47776
 Alpha virt. eigenvalues --    2.48492   2.48825   2.49448   2.50309   2.50974
 Alpha virt. eigenvalues --    2.51527   2.51979   2.52626   2.52784   2.52928
 Alpha virt. eigenvalues --    2.53375   2.53523   2.53616   2.53712   2.54050
 Alpha virt. eigenvalues --    2.54114   2.54612   2.55200   2.55586   2.56187
 Alpha virt. eigenvalues --    2.57331   2.57765   2.58282   2.58574   2.58952
 Alpha virt. eigenvalues --    2.59377   2.59698   2.60072   2.60196   2.61527
 Alpha virt. eigenvalues --    2.61869   2.62796   2.63925   2.64299   2.64817
 Alpha virt. eigenvalues --    2.65390   2.65750   2.66456   2.67270   2.68044
 Alpha virt. eigenvalues --    2.69450   2.70531   2.70957   2.71048   2.71397
 Alpha virt. eigenvalues --    2.71624   2.71964   2.72110   2.72681   2.74237
 Alpha virt. eigenvalues --    2.75010   2.75683   2.76129   2.76296   2.76997
 Alpha virt. eigenvalues --    2.78857   2.81002   2.82465   2.82972   2.83373
 Alpha virt. eigenvalues --    2.85284   2.85938   2.86958   2.88939   2.89778
 Alpha virt. eigenvalues --    2.90261   2.91364   2.92595   2.94167   2.94520
 Alpha virt. eigenvalues --    2.96795   2.97469   2.98803   2.98880   3.00320
 Alpha virt. eigenvalues --    3.00931   3.01728   3.02598   3.03608   3.05373
 Alpha virt. eigenvalues --    3.05549   3.05785   3.05956   3.07408   3.08074
 Alpha virt. eigenvalues --    3.08589   3.09177   3.12348   3.12959   3.13225
 Alpha virt. eigenvalues --    3.13875   3.14828   3.15772   3.15914   3.16654
 Alpha virt. eigenvalues --    3.17127   3.18076   3.20456   3.20960   3.22186
 Alpha virt. eigenvalues --    3.22757   3.23254   3.23680   3.24001   3.24280
 Alpha virt. eigenvalues --    3.27273   3.30502   3.31983   3.34020   3.34451
 Alpha virt. eigenvalues --    3.34745   3.35005   3.35505   3.35660   3.36417
 Alpha virt. eigenvalues --    3.38219   3.39140   3.40742   3.40959   3.41042
 Alpha virt. eigenvalues --    3.41355   3.44349   3.46792   3.61707   3.64488
 Alpha virt. eigenvalues --    3.66712   3.66907   3.69146   3.75207   3.78692
 Alpha virt. eigenvalues --    3.79999   3.80384  19.63305
          Condensed to atoms (all electrons):
 Mulliken charges:
               1
     1  C    0.052278
     2  C    0.318897
     3  C   -0.025217
     4  C    0.137484
     5  C    0.173121
     6  C    0.019962
     7  C   -0.185214
     8  C    0.229521
     9  C   -0.073701
    10  C    0.187674
    11  C   -0.207516
    12  C    0.199492
    13  H    0.141233
    14  H    0.134549
    15  H    0.133915
    16  N   -0.108826
    17  N   -0.006510
    18  N   -0.085633
    19  N   -0.075061
    20  C    0.082781
    21  H    0.134303
    22  C    0.056912
    23  H    0.131038
    24  C    0.298378
    25  C   -0.037441
    26  H    0.134350
    27  C    0.200086
    28  C   -0.053240
    29  C   -0.151477
    30  C   -0.130226
    31  C   -0.514395
    32  C    0.180253
    33  C    0.161998
    34  C    0.250176
    35  C    0.239975
    36  C    0.567260
    37  C   -0.450962
    38  C    0.066883
    39  C    0.052037
    40  C    0.364712
    41  C    0.380174
    42  C    0.469607
    43  C   -0.613342
    44  C    0.215052
    45  C    0.206173
    46  C    0.212113
    47  C    0.240294
    48  C    0.562091
    49  C   -0.740838
    50  C   -0.135807
    51  H    0.153821
    52  F   -0.284326
    53  F   -0.338851
    54  F   -0.338984
    55  F   -0.338516
    56  F   -0.285512
    57  F   -0.281330
    58  F   -0.342932
    59  F   -0.338123
    60  F   -0.342571
    61  F   -0.281727
    62  F   -0.285469
    63  F   -0.336962
    64  F   -0.338289
    65  F   -0.336733
    66  F   -0.281185
    67  H    0.146094
    68  C    0.095753
    69  C   -0.145211
    70  H    0.169699
    71  S    0.226690
    72  O   -0.514415
    73  H    0.377426
    74  H    0.155000
    75  Pt   0.747290
 Sum of Mulliken charges =   0.00000
 Mulliken charges with hydrogens summed into heavy atoms:
               1
     1  C    0.052278
     2  C    0.318897
     3  C    0.108698
     4  C    0.137484
     5  C    0.173121
     6  C    0.174961
     7  C   -0.185214
     8  C    0.229521
     9  C    0.060847
    10  C    0.187674
    11  C   -0.066283
    12  C    0.199492
    16  N   -0.108826
    17  N   -0.006510
    18  N   -0.085633
    19  N   -0.075061
    20  C    0.217084
    22  C    0.187950
    24  C    0.298378
    25  C    0.096908
    27  C    0.200086
    28  C   -0.053240
    29  C   -0.151477
    30  C   -0.130226
    31  C   -0.514395
    32  C    0.180253
    33  C    0.161998
    34  C    0.250176
    35  C    0.239975
    36  C    0.567260
    37  C   -0.450962
    38  C    0.066883
    39  C    0.052037
    40  C    0.364712
    41  C    0.380174
    42  C    0.469607
    43  C   -0.613342
    44  C    0.215052
    45  C    0.206173
    46  C    0.212113
    47  C    0.240294
    48  C    0.562091
    49  C   -0.740838
    50  C    0.010287
    52  F   -0.284326
    53  F   -0.338851
    54  F   -0.338984
    55  F   -0.338516
    56  F   -0.285512
    57  F   -0.281330
    58  F   -0.342932
    59  F   -0.338123
    60  F   -0.342571
    61  F   -0.281727
    62  F   -0.285469
    63  F   -0.336962
    64  F   -0.338289
    65  F   -0.336733
    66  F   -0.281185
    68  C    0.249574
    69  C    0.024487
    71  S    0.226690
    72  O   -0.136990
    75  Pt   0.747290
 Electronic spatial extent (au):  <R**2>=          58677.0090
 Charge=              0.0000 electrons
 Dipole moment (field-independent basis, Debye):
    X=             -2.8966    Y=             -3.6450    Z=             -0.6973  Tot=              4.7077
 Quadrupole moment (field-independent basis, Debye-Ang):
   XX=           -379.3224   YY=           -357.1835   ZZ=           -400.8673
   XY=             24.7059   XZ=              5.6497   YZ=              9.5556
 Traceless Quadrupole moment (field-independent basis, Debye-Ang):
   XX=             -0.1981   YY=             21.9409   ZZ=            -21.7429
   XY=             24.7059   XZ=              5.6497   YZ=              9.5556
 Octapole moment (field-independent basis, Debye-Ang**2):
  XXX=              6.8385  YYY=           -230.8253  ZZZ=             -3.8836  XYY=           -188.4932
  XXY=            -88.4474  XXZ=             17.1559  XZZ=              2.4152  YZZ=            -17.2210
  YYZ=            -47.8403  XYZ=             -2.9893
 Hexadecapole moment (field-independent basis, Debye-Ang**3):
 XXXX=         -44025.3605 YYYY=         -28311.8404 ZZZZ=          -3089.6514 XXXY=           1635.5908
 XXXZ=             84.3441 YYYX=            -56.8563 YYYZ=            151.6740 ZZZX=            -38.6464
 ZZZY=            -17.6823 XXYY=         -11084.3684 XXZZ=          -8030.0229 YYZZ=          -5493.6942
 XXYZ=            200.2007 YYXZ=             12.2055 ZZXY=             -9.6065
 N-N= 1.015280721754D+04 E-N=-2.947490570428D+04  KE= 3.813420543782D+03
 Unable to Open any file for archive entry.
 1\1\GINC-CCCC106\SP\RB3LYP TD-FC\GenECP\C42H11F15N4O1Pt1S1\CPI\03-Sep-
 2022\0\\# td=(nstates=75) b3lyp/genecp geom=connectivity scf=maxcyc=10
 00\\title\\0,1\C,0,-1.981437,-2.784835,-0.156551\C,0,2.182795,1.743593
 ,0.025024\C,0,4.21014,0.755084,0.072449\C,0,3.164645,-0.240701,0.03343
 7\C,0,2.366494,-2.588846,0.011704\C,0,1.363273,-4.610125,-0.004646\C,0
 ,0.390026,-3.557669,-0.034276\C,0,-0.162959,2.540139,0.01603\C,0,-1.15
 8429,3.58931,0.039095\C,0,-2.939292,-0.789999,-0.07314\C,0,-3.987579,-
 1.756551,-0.162479\C,0,-2.148844,1.562952,0.010848\H,0,-5.043208,-1.53
 6664,-0.213802\H,0,-0.943781,4.647273,0.048195\H,0,5.267807,0.541701,0
 .110506\N,0,1.016362,-2.335522,-0.022816\N,0,-1.724899,-1.429807,-0.07
 8728\N,0,1.937788,0.392428,0.008012\N,0,-0.790602,1.319087,-0.003633\C
 ,0,3.609402,1.970659,0.065951\H,0,4.081908,2.940765,0.098833\C,0,2.586
 498,-4.011474,0.018195\H,0,3.554003,-4.490434,0.031626\C,0,-3.413581,-
 2.999464,-0.236507\C,0,-2.37406,2.990882,0.044999\H,0,-3.343196,3.4658
 15,0.071156\C,0,-0.992066,-3.781065,-0.093899\C,0,-3.151254,0.601408,-
 0.015532\C,0,3.378874,-1.615948,0.035815\C,0,1.21797,2.756639,0.023632
 \C,0,4.793791,-2.098798,0.067366\C,0,5.6076,-2.047395,-1.068802\C,0,5.
 357668,-2.62621,1.233547\C,0,6.926483,-2.49628,-1.051264\C,0,6.672368,
 -3.085231,1.273925\C,0,7.45872,-3.018073,0.125712\C,0,1.699861,4.17183
 4,0.038877\C,0,2.245192,4.768292,-1.10295\C,0,1.627729,4.956668,1.1945
 34\C,0,2.701977,6.084508,-1.101196\C,0,2.07239,6.276754,1.219068\C,0,2
 .612992,6.840732,0.065509\C,0,-4.569376,1.074474,0.00979\C,0,-5.167028
 ,1.657645,-1.112395\C,0,-5.358182,0.947081,1.158107\C,0,-6.487692,2.10
 1334,-1.097608\C,0,-6.682256,1.378377,1.195132\C,0,-7.247209,1.959049,
 0.061585\C,0,-4.157629,-4.256253,-0.3822\C,0,-5.03537,-6.267289,-1.218
 795\H,0,-3.365896,-5.166129,-2.184158\F,0,4.628292,-2.701559,2.353913\
 F,0,7.184244,-3.583279,2.404473\F,0,8.720493,-3.452649,0.15355\F,0,7.6
 80458,-2.433881,-2.153933\F,0,5.124719,-1.55405,-2.216223\F,0,2.342657
 ,4.06903,-2.240773\F,0,3.218517,6.626498,-2.209202\F,0,3.044801,8.1037
 15,0.078091\F,0,1.989124,7.00162,2.33985\F,0,1.115492,4.443339,2.32061
 6\F,0,-4.465689,1.805334,-2.243735\F,0,-7.03061,2.655727,-2.186689\F,0
 ,-8.514099,2.378316,0.086244\F,0,-7.410247,1.24387,2.308651\F,0,-4.843
 773,0.394574,2.264165\H,0,-5.118059,-7.108013,-1.897656\C,0,-4.073956,
 -5.224097,-1.364595\C,0,-5.852118,-6.08626,-0.136265\H,0,-6.65778,-6.7
 20399,0.207439\S,0,-5.453581,-4.643486,0.733626\O,0,-1.321846,-5.09474
 2,-0.080995\H,0,-2.287407,-5.210006,-0.100463\H,0,1.127535,-5.663123,-
 0.009008\Pt,0,0.110138,-0.512166,-0.023935\\Version=ES64L-G16RevC.01\S
 tate=1-A\HF=-3916.3494964\RMSD=3.236e-09\PG=C01 [X(C42H11F15N4O1Pt1S1)
 ]\\@
 The archive entry for this job was punched.


 IN THE LONG RUN, DIGGING FOR TRUTH HAS ALWAYS PROVED NOT ONLY 
 MORE INTERESTING BUT MORE PROFITABLE THAN DIGGING FOR GOLD.

                             -- GEORGE R. HARRISON
 Job cpu time:       6 days  0 hours 52 minutes 49.3 seconds.
 Elapsed time:       0 days  9 hours  4 minutes 38.2 seconds.
 File lengths (MBytes):  RWF=  47893 Int=      0 D2E=      0 Chk=   3686 Scr=      1
 Normal termination of Gaussian 16 at Sat Sep  3 21:18:10 2022.
