 Entering Gaussian System, Link 0=/local/apl/lx/g16c01/g16/._.g16
 Initial command:
 /local/apl/lx/g16c01/g16/l1.exe "/work/users/cpi/tmp.234459/Gau-234518.inp" -scrdir="/work/users/cpi/tmp.234459/"
 Entering Link 1 = /local/apl/lx/g16c01/g16/l1.exe PID=    234519.
  
 Copyright (c) 1988-2019, Gaussian, Inc.  All Rights Reserved.
  
 This is part of the Gaussian(R) 16 program.  It is based on
 the Gaussian(R) 09 system (copyright 2009, Gaussian, Inc.),
 the Gaussian(R) 03 system (copyright 2003, Gaussian, Inc.),
 the Gaussian(R) 98 system (copyright 1998, Gaussian, Inc.),
 the Gaussian(R) 94 system (copyright 1995, Gaussian, Inc.),
 the Gaussian 92(TM) system (copyright 1992, Gaussian, Inc.),
 the Gaussian 90(TM) system (copyright 1990, Gaussian, Inc.),
 the Gaussian 88(TM) system (copyright 1988, Gaussian, Inc.),
 the Gaussian 86(TM) system (copyright 1986, Carnegie Mellon
 University), and the Gaussian 82(TM) system (copyright 1983,
 Carnegie Mellon University). Gaussian is a federally registered
 trademark of Gaussian, Inc.
  
 This software contains proprietary and confidential information,
 including trade secrets, belonging to Gaussian, Inc.
  
 This software is provided under written license and may be
 used, copied, transmitted, or stored only in accord with that
 written license.
  
 The following legend is applicable only to US Government
 contracts under FAR:
  
                    RESTRICTED RIGHTS LEGEND
  
 Use, reproduction and disclosure by the US Government is
 subject to restrictions as set forth in subparagraphs (a)
 and (c) of the Commercial Computer Software - Restricted
 Rights clause in FAR 52.227-19.
  
 Gaussian, Inc.
 340 Quinnipiac St., Bldg. 40, Wallingford CT 06492
  
  
 ---------------------------------------------------------------
 Warning -- This program may not be used in any manner that
 competes with the business of Gaussian, Inc. or will provide
 assistance to any competitor of Gaussian, Inc.  The licensee
 of this program is prohibited from giving any competitor of
 Gaussian, Inc. access to this program.  By using this program,
 the user acknowledges that Gaussian, Inc. is engaged in the
 business of creating and licensing software in the field of
 computational chemistry and represents and warrants to the
 licensee that it is not a competitor of Gaussian, Inc. and that
 it will not use this program in any manner prohibited above.
 ---------------------------------------------------------------
  

 Cite this work as:
 Gaussian 16, Revision C.01,
 M. J. Frisch, G. W. Trucks, H. B. Schlegel, G. E. Scuseria, 
 M. A. Robb, J. R. Cheeseman, G. Scalmani, V. Barone, 
 G. A. Petersson, H. Nakatsuji, X. Li, M. Caricato, A. V. Marenich, 
 J. Bloino, B. G. Janesko, R. Gomperts, B. Mennucci, H. P. Hratchian, 
 J. V. Ortiz, A. F. Izmaylov, J. L. Sonnenberg, D. Williams-Young, 
 F. Ding, F. Lipparini, F. Egidi, J. Goings, B. Peng, A. Petrone, 
 T. Henderson, D. Ranasinghe, V. G. Zakrzewski, J. Gao, N. Rega, 
 G. Zheng, W. Liang, M. Hada, M. Ehara, K. Toyota, R. Fukuda, 
 J. Hasegawa, M. Ishida, T. Nakajima, Y. Honda, O. Kitao, H. Nakai, 
 T. Vreven, K. Throssell, J. A. Montgomery, Jr., J. E. Peralta, 
 F. Ogliaro, M. J. Bearpark, J. J. Heyd, E. N. Brothers, K. N. Kudin, 
 V. N. Staroverov, T. A. Keith, R. Kobayashi, J. Normand, 
 K. Raghavachari, A. P. Rendell, J. C. Burant, S. S. Iyengar, 
 J. Tomasi, M. Cossi, J. M. Millam, M. Klene, C. Adamo, R. Cammi, 
 J. W. Ochterski, R. L. Martin, K. Morokuma, O. Farkas, 
 J. B. Foresman, and D. J. Fox, Gaussian, Inc., Wallingford CT, 2019.
 
 ******************************************
 Gaussian 16:  ES64L-G16RevC.01  3-Jul-2019
                 3-Sep-2022 
 ******************************************
 %mem=100GB
 %nprocshare=16
 Will use up to   16 processors via shared memory.
 %chk=Pt_3C6F5_Por_dithiophene_O-.chk
 ----------------------------------------------------------------
 # td=(nstates=75) b3lyp/genecp geom=connectivity scf=maxcyc=1000
 ----------------------------------------------------------------
 1/38=1,57=2,172=1/1;
 2/12=2,17=6,18=5,40=1/2;
 3/5=7,11=9,16=1,17=8,25=1,30=1,74=-5/1,2,3,8;
 4//1;
 5/5=2,7=1000,38=5/2;
 8/6=1,10=1,108=75/1;
 9/41=75,42=1,70=2/14;
 6/7=2,8=2,9=2,10=2/1;
 99/5=1,9=1/99;
 -----
 title
 -----
 Symbolic Z-matrix:
 Charge = -1 Multiplicity = 1
 C                    -1.2657   -2.7617   -0.54039 
 C                     1.24186   2.82993  -0.16175 
 C                     3.47151   2.53552   0.07499 
 C                     2.79691   1.26029   0.04276 
 C                     2.78194  -1.23299  -0.02188 
 C                     2.51927  -3.46227  -0.37864 
 C                     1.26523  -2.76196  -0.54013 
 C                    -1.24134   2.83015  -0.16149 
 C                    -2.51983   3.49985  -0.06747 
 C                    -2.78213  -1.23251  -0.02197 
 C                    -3.44572  -2.48407  -0.04168 
 C                    -2.79664   1.26076   0.04309 
 H                    -4.50055  -2.63919   0.13281 
 H                    -2.66601   4.57058  -0.08879 
 H                     4.53798   2.67441   0.18355 
 N                     1.43959  -1.42944  -0.28882 
 N                    -1.43981  -1.42919  -0.28884 
 N                     1.43746   1.47427  -0.11043 
 N                    -1.43717   1.47451  -0.11029 
 C                     2.5205    3.49941  -0.06811 
 H                     2.66687   4.57011  -0.08961 
 C                     3.44525  -2.4847   -0.04123 
 H                     4.50002  -2.64001   0.13344 
 C                    -2.51992  -3.46177  -0.37921 
 C                    -3.471     2.53611   0.07566 
 H                    -4.53742   2.67519   0.18446 
 C                    -0.00026  -3.36509  -0.93775 
 C                    -3.41285   0.02069   0.13076 
 C                     3.41291   0.02011   0.13057 
 C                     0.00031   3.47746  -0.22637 
 C                     4.89313   0.00184   0.35815 
 C                     5.80431   0.00277  -0.70384 
 C                     5.43586  -0.02912   1.64739 
 C                     7.18341  -0.02099  -0.50225 
 C                     6.81079  -0.05437   1.87667 
 C                     7.68764  -0.05121   0.79528 
 C                     0.00043   4.97113  -0.30144 
 C                     0.00041   5.64499  -1.52906 
 C                     0.00059   5.77387   0.8461 
 C                     0.00052   7.03634  -1.61909 
 C                     0.00073   7.16665   0.78523 
 C                     0.00069   7.79982  -0.45485 
 C                    -4.89306   0.00263   0.35845 
 C                    -5.80434   0.00471  -0.70346 
 C                    -5.43569  -0.02929   1.64772 
 C                    -7.18342  -0.01886  -0.50175 
 C                    -6.81059  -0.05437   1.8771 
 C                    -7.68755  -0.05006   0.7958 
 C                    -2.85338  -4.88581  -0.42996 
 C                    -3.09731  -7.15744  -0.97868 
 H                    -1.64706  -5.78415  -1.96541 
 C                     2.85239  -4.88641  -0.42895 
 C                     3.09581  -7.15828  -0.97691 
 H                     1.64603  -5.78492  -1.96426 
 F                     4.62697  -0.03203   2.71915 
 F                     7.29755  -0.08027   3.12975 
 F                     9.01418  -0.07273   1.0027 
 F                     8.03031  -0.01359  -1.5466 
 F                     5.36195   0.03424  -1.97127 
 F                     0.00027   4.95042  -2.67837 
 F                     0.00047   7.64798  -2.81684 
 F                     0.00082   9.14085  -0.52738 
 F                     0.0009    7.90433   1.90999 
 F                     0.00061   5.2075    2.06419 
 F                    -5.36208   0.03709  -1.9709 
 F                    -8.03042  -0.01036  -1.54602 
 F                    -9.01408  -0.0714    1.00331 
 F                    -7.29725  -0.0812    3.1302 
 F                    -4.6267   -0.03329   2.71939 
 H                     2.88352  -8.07523  -1.51688 
 H                    -2.88518  -8.07428  -1.5189 
 O                    -0.00029  -4.42695  -1.59373 
 C                     2.42432  -5.92495  -1.22931 
 C                    -2.42549  -5.9242   -1.23061 
 C                    -4.03706  -7.06984   0.01542 
 H                    -4.67674  -7.84869   0.40879 
 S                    -4.10887  -5.46666   0.66914 
 S                     4.10757  -5.46725   0.67052 
 C                     4.0355   -7.07059   0.01724 
 H                     4.67497  -7.84947   0.4109 
 Pt                    0.00001   0.02477  -0.21844 
 
 Stoichiometry    C46H12F15N4OPtS2(1-)
 Framework group  C1[X(C46H12F15N4OPtS2)]
 Deg. of freedom   237
 Full point group                 C1      NOp   1
 Largest Abelian subgroup         C1      NOp   1
 Largest concise Abelian subgroup C1      NOp   1
                         Standard orientation:                         
 ---------------------------------------------------------------------
 Center     Atomic      Atomic             Coordinates (Angstroms)
 Number     Number       Type             X           Y           Z
 ---------------------------------------------------------------------
      1          6           0       -1.265703   -2.761702   -0.540392
      2          6           0        1.241863    2.829932   -0.161754
      3          6           0        3.471511    2.535518    0.074994
      4          6           0        2.796914    1.260292    0.042764
      5          6           0        2.781939   -1.232989   -0.021882
      6          6           0        2.519269   -3.462269   -0.378643
      7          6           0        1.265227   -2.761957   -0.540130
      8          6           0       -1.241338    2.830147   -0.161487
      9          6           0       -2.519833    3.499849   -0.067474
     10          6           0       -2.782132   -1.232511   -0.021970
     11          6           0       -3.445719   -2.484066   -0.041679
     12          6           0       -2.796643    1.260764    0.043094
     13          1           0       -4.500545   -2.639185    0.132811
     14          1           0       -2.666009    4.570580   -0.088793
     15          1           0        4.537984    2.674410    0.183552
     16          7           0        1.439592   -1.429441   -0.288819
     17          7           0       -1.439811   -1.429192   -0.288844
     18          7           0        1.437458    1.474265   -0.110428
     19          7           0       -1.437172    1.474508   -0.110293
     20          6           0        2.520501    3.499411   -0.068107
     21          1           0        2.666871    4.570111   -0.089614
     22          6           0        3.445248   -2.484696   -0.041234
     23          1           0        4.500015   -2.640009    0.133438
     24          6           0       -2.519918   -3.461766   -0.379214
     25          6           0       -3.470995    2.536114    0.075659
     26          1           0       -4.537419    2.675192    0.184457
     27          6           0       -0.000261   -3.365091   -0.937746
     28          6           0       -3.412852    0.020686    0.130758
     29          6           0        3.412905    0.020113    0.130574
     30          6           0        0.000313    3.477462   -0.226373
     31          6           0        4.893130    0.001838    0.358151
     32          6           0        5.804308    0.002772   -0.703844
     33          6           0        5.435862   -0.029122    1.647389
     34          6           0        7.183406   -0.020991   -0.502248
     35          6           0        6.810786   -0.054367    1.876674
     36          6           0        7.687644   -0.051212    0.795283
     37          6           0        0.000433    4.971131   -0.301442
     38          6           0        0.000409    5.644989   -1.529062
     39          6           0        0.000588    5.773872    0.846096
     40          6           0        0.000521    7.036338   -1.619085
     41          6           0        0.000725    7.166648    0.785230
     42          6           0        0.000689    7.799817   -0.454846
     43          6           0       -4.893063    0.002630    0.358454
     44          6           0       -5.804337    0.004707   -0.703455
     45          6           0       -5.435685   -0.029286    1.647716
     46          6           0       -7.183425   -0.018864   -0.501754
     47          6           0       -6.810594   -0.054368    1.877103
     48          6           0       -7.687551   -0.050058    0.795795
     49          6           0       -2.853381   -4.885812   -0.429962
     50          6           0       -3.097306   -7.157440   -0.978684
     51          1           0       -1.647056   -5.784152   -1.965412
     52          6           0        2.852393   -4.886412   -0.428945
     53          6           0        3.095806   -7.158279   -0.976913
     54          1           0        1.646032   -5.784922   -1.964260
     55          9           0        4.626974   -0.032026    2.719148
     56          9           0        7.297546   -0.080270    3.129747
     57          9           0        9.014185   -0.072729    1.002696
     58          9           0        8.030309   -0.013587   -1.546596
     59          9           0        5.361945    0.034235   -1.971268
     60          9           0        0.000268    4.950418   -2.678368
     61          9           0        0.000470    7.647976   -2.816839
     62          9           0        0.000816    9.140854   -0.527382
     63          9           0        0.000897    7.904329    1.909986
     64          9           0        0.000614    5.207498    2.064185
     65          9           0       -5.362084    0.037089   -1.970896
     66          9           0       -8.030419   -0.010364   -1.546021
     67          9           0       -9.014078   -0.071401    1.003314
     68          9           0       -7.297249   -0.081196    3.130197
     69          9           0       -4.626698   -0.033285    2.719393
     70          1           0        2.883524   -8.075234   -1.516879
     71          1           0       -2.885178   -8.074284   -1.518900
     72          8           0       -0.000294   -4.426954   -1.593729
     73          6           0        2.424318   -5.924949   -1.229307
     74          6           0       -2.425485   -5.924198   -1.230613
     75          6           0       -4.037064   -7.069844    0.015420
     76          1           0       -4.676743   -7.848692    0.408794
     77         16           0       -4.108867   -5.466662    0.669138
     78         16           0        4.107573   -5.467245    0.670518
     79          6           0        4.035501   -7.070595    0.017240
     80          1           0        4.674973   -7.849467    0.410902
     81         78           0        0.000014    0.024767   -0.218444
 ---------------------------------------------------------------------
 Rotational constants (GHZ):           0.0282383           0.0239851           0.0143040
 General basis read from cards:  (5D, 7F)
 ======================================================================================================
                                       Pseudopotential Parameters
 ======================================================================================================
  Center     Atomic      Valence      Angular      Power
  Number     Number     Electrons     Momentum     of R      Exponent        Coefficient   SO-Coeffient
 ======================================================================================================
    1          6
                                   No pseudopotential on this center.
    2          6
                                   No pseudopotential on this center.
    3          6
                                   No pseudopotential on this center.
    4          6
                                   No pseudopotential on this center.
    5          6
                                   No pseudopotential on this center.
    6          6
                                   No pseudopotential on this center.
    7          6
                                   No pseudopotential on this center.
    8          6
                                   No pseudopotential on this center.
    9          6
                                   No pseudopotential on this center.
   10          6
                                   No pseudopotential on this center.
   11          6
                                   No pseudopotential on this center.
   12          6
                                   No pseudopotential on this center.
   13          1
                                   No pseudopotential on this center.
   14          1
                                   No pseudopotential on this center.
   15          1
                                   No pseudopotential on this center.
   16          7
                                   No pseudopotential on this center.
   17          7
                                   No pseudopotential on this center.
   18          7
                                   No pseudopotential on this center.
   19          7
                                   No pseudopotential on this center.
   20          6
                                   No pseudopotential on this center.
   21          1
                                   No pseudopotential on this center.
   22          6
                                   No pseudopotential on this center.
   23          1
                                   No pseudopotential on this center.
   24          6
                                   No pseudopotential on this center.
   25          6
                                   No pseudopotential on this center.
   26          1
                                   No pseudopotential on this center.
   27          6
                                   No pseudopotential on this center.
   28          6
                                   No pseudopotential on this center.
   29          6
                                   No pseudopotential on this center.
   30          6
                                   No pseudopotential on this center.
   31          6
                                   No pseudopotential on this center.
   32          6
                                   No pseudopotential on this center.
   33          6
                                   No pseudopotential on this center.
   34          6
                                   No pseudopotential on this center.
   35          6
                                   No pseudopotential on this center.
   36          6
                                   No pseudopotential on this center.
   37          6
                                   No pseudopotential on this center.
   38          6
                                   No pseudopotential on this center.
   39          6
                                   No pseudopotential on this center.
   40          6
                                   No pseudopotential on this center.
   41          6
                                   No pseudopotential on this center.
   42          6
                                   No pseudopotential on this center.
   43          6
                                   No pseudopotential on this center.
   44          6
                                   No pseudopotential on this center.
   45          6
                                   No pseudopotential on this center.
   46          6
                                   No pseudopotential on this center.
   47          6
                                   No pseudopotential on this center.
   48          6
                                   No pseudopotential on this center.
   49          6
                                   No pseudopotential on this center.
   50          6
                                   No pseudopotential on this center.
   51          1
                                   No pseudopotential on this center.
   52          6
                                   No pseudopotential on this center.
   53          6
                                   No pseudopotential on this center.
   54          1
                                   No pseudopotential on this center.
   55          9
                                   No pseudopotential on this center.
   56          9
                                   No pseudopotential on this center.
   57          9
                                   No pseudopotential on this center.
   58          9
                                   No pseudopotential on this center.
   59          9
                                   No pseudopotential on this center.
   60          9
                                   No pseudopotential on this center.
   61          9
                                   No pseudopotential on this center.
   62          9
                                   No pseudopotential on this center.
   63          9
                                   No pseudopotential on this center.
   64          9
                                   No pseudopotential on this center.
   65          9
                                   No pseudopotential on this center.
   66          9
                                   No pseudopotential on this center.
   67          9
                                   No pseudopotential on this center.
   68          9
                                   No pseudopotential on this center.
   69          9
                                   No pseudopotential on this center.
   70          1
                                   No pseudopotential on this center.
   71          1
                                   No pseudopotential on this center.
   72          8
                                   No pseudopotential on this center.
   73          6
                                   No pseudopotential on this center.
   74          6
                                   No pseudopotential on this center.
   75          6
                                   No pseudopotential on this center.
   76          1
                                   No pseudopotential on this center.
   77         16
                                   No pseudopotential on this center.
   78         16
                                   No pseudopotential on this center.
   79          6
                                   No pseudopotential on this center.
   80          1
                                   No pseudopotential on this center.
   81         78           18
                                      G and up 
                                                     1      728.9394056       -0.16192680    0.00000000
                                                     2      320.6567800    -1320.28738520    0.00000000
                                                     2       52.8680174     -298.31781350    0.00000000
                                                     2       12.0280128      -87.58370650    0.00000000
                                                     2        3.5238913       -8.14932740    0.00000000
                                      S - G
                                                     0      409.4437358        2.73342180    0.00000000
                                                     1      274.5419231       59.70243290    0.00000000
                                                     2      127.5658570      891.45895500    0.00000000
                                                     2       32.9036631      368.44676560    0.00000000
                                                     2        5.0593880      238.02630900    0.00000000
                                                     2        4.1506556     -107.05564540    0.00000000
                                      P - G
                                                     0      466.1728892        1.88785680    0.00000000
                                                     1      120.7888259       76.01386290    0.00000000
                                                     2       36.4118791      343.55111160    0.00000000
                                                     2        5.6985408      119.49117860    0.00000000
                                      D - G
                                                     0      249.5650763        2.93436780    0.00000000
                                                     1      126.6678585       59.33065710    0.00000000
                                                     2       63.1430586      452.44451940    0.00000000
                                                     2       17.9059470      210.47694790    0.00000000
                                                     2        4.2239373       58.62541120    0.00000000
                                      F - G
                                                     0      121.8158799        3.95342530    0.00000000
                                                     1       60.8757030       53.85551820    0.00000000
                                                     2       31.4767147      247.43051330    0.00000000
                                                     2        9.8811751      127.81879760    0.00000000
                                                     2        2.7319874       15.37720460    0.00000000
 ======================================================================================================
 There are  1384 symmetry adapted cartesian basis functions of A   symmetry.
 There are  1314 symmetry adapted basis functions of A   symmetry.
  1314 basis functions,  2351 primitive gaussians,  1384 cartesian basis functions
   255 alpha electrons      255 beta electrons
       nuclear repulsion energy     11587.7901416978 Hartrees.
 NAtoms=   81 NActive=   81 NUniq=   81 SFac= 1.00D+00 NAtFMM=   60 NAOKFM=T Big=T
 Integral buffers will be    131072 words long.
 Regular integral format.
 Two-electron integral symmetry is turned on.
 One-electron integrals computed using PRISM.
   1 Symmetry operations used in ECPInt.
 ECPInt:  NShTT=   74691 NPrTT=  410361 LenC2=   50279 LenP2D=  143933.
 LDataN:  DoStor=T MaxTD1= 6 Len=  172
 NBasis=  1314 RedAO= T EigKep=  1.07D-06  NBF=  1314
 NBsUse=  1295 1.00D-06 EigRej=  8.75D-07 NBFU=  1295
 Defaulting to unpruned grid for atomic number  78.
 ExpMin= 2.90D-02 ExpMax= 2.19D+04 ExpMxC= 3.30D+03 IAcc=3 IRadAn=         5 AccDes= 0.00D+00
 Harris functional with IExCor=  402 and IRadAn=       5 diagonalized for initial guess.
 HarFok:  IExCor=  402 AccDes= 0.00D+00 IRadAn=         5 IDoV= 1 UseB2=F ITyADJ=14
 ICtDFT=  3500011 ScaDFX=  1.000000  1.000000  1.000000  1.000000
 Defaulting to unpruned grid for atomic number  78.
 FoFCou: FMM=F IPFlag=           0 FMFlag=      100000 FMFlg1=        2001
         NFxFlg=           0 DoJE=T BraDBF=F KetDBF=T FulRan=T
         wScrn=  0.000000 ICntrl=       500 IOpCl=  0 I1Cent=   200000004 NGrid=           0
         NMat0=    1 NMatS0=      1 NMatT0=    0 NMatD0=    1 NMtDS0=    0 NMtDT0=    0
 Petite list used in FoFCou.
 Requested convergence on RMS density matrix=1.00D-08 within1000 cycles.
 Requested convergence on MAX density matrix=1.00D-06.
 Requested convergence on             energy=1.00D-06.
 No special actions if energy rises.
 Defaulting to unpruned grid for atomic number  78.
 Defaulting to unpruned grid for atomic number  78.
 Defaulting to unpruned grid for atomic number  78.
 Defaulting to unpruned grid for atomic number  78.
 Defaulting to unpruned grid for atomic number  78.
 Defaulting to unpruned grid for atomic number  78.
 Defaulting to unpruned grid for atomic number  78.
 Defaulting to unpruned grid for atomic number  78.
 Defaulting to unpruned grid for atomic number  78.
 Defaulting to unpruned grid for atomic number  78.
 Defaulting to unpruned grid for atomic number  78.
 Defaulting to unpruned grid for atomic number  78.
 Defaulting to unpruned grid for atomic number  78.
 Defaulting to unpruned grid for atomic number  78.
 Defaulting to unpruned grid for atomic number  78.
 Defaulting to unpruned grid for atomic number  78.
 EnCoef did   100 forward-backward iterations
 EnCoef did   100 forward-backward iterations
 EnCoef did     4 forward-backward iterations
 EnCoef did     4 forward-backward iterations
 Restarting incremental Fock formation.
 SCF Done:  E(RB3LYP) =  -4467.66244330     A.U. after   25 cycles
            NFock= 25  Conv=0.45D-08     -V/T= 2.0241
 DoSCS=F DFT=T ScalE2(SS,OS)=  1.000000  1.000000
 ExpMin= 2.90D-02 ExpMax= 2.19D+04 ExpMxC= 3.30D+03 IAcc=3 IRadAn=         5 AccDes= 0.00D+00
 HarFok:  IExCor=  205 AccDes= 0.00D+00 IRadAn=         5 IDoV=-2 UseB2=F ITyADJ=14
 ICtDFT= 12500011 ScaDFX=  1.000000  1.000000  1.000000  1.000000
 Defaulting to unpruned grid for atomic number  78.
 GSVD:  LWork=       -6384 too small for GESVD, short by       30020 words or       30020 for optimal perf.
 Range of M.O.s used for correlation:    77  1295
 NBasis=  1314 NAE=   255 NBE=   255 NFC=    76 NFV=     0
 NROrb=   1219 NOA=   179 NOB=   179 NVA=  1040 NVB=  1040

 **** Warning!!: The largest alpha MO coefficient is  0.11828450D+03


 **** Warning!!: The smallest alpha delta epsilon is  0.82713884D-01

 Orbital symmetries:
       Occupied  (A) (A) (A) (A) (A) (A) (A) (A) (A) (A) (A) (A)
                 (A) (A) (A) (A) (A) (A) (A) (A) (A) (A) (A) (A)
                 (A) (A) (A) (A) (A) (A) (A) (A) (A) (A) (A) (A)
                 (A) (A) (A) (A) (A) (A) (A) (A) (A) (A) (A) (A)
                 (A) (A) (A) (A) (A) (A) (A) (A) (A) (A) (A) (A)
                 (A) (A) (A) (A) (A) (A) (A) (A) (A) (A) (A) (A)
                 (A) (A) (A) (A) (A) (A) (A) (A) (A) (A) (A) (A)
                 (A) (A) (A) (A) (A) (A) (A) (A) (A) (A) (A) (A)
                 (A) (A) (A) (A) (A) (A) (A) (A) (A) (A) (A) (A)
                 (A) (A) (A) (A) (A) (A) (A) (A) (A) (A) (A) (A)
                 (A) (A) (A) (A) (A) (A) (A) (A) (A) (A) (A) (A)
                 (A) (A) (A) (A) (A) (A) (A) (A) (A) (A) (A) (A)
                 (A) (A) (A) (A) (A) (A) (A) (A) (A) (A) (A) (A)
                 (A) (A) (A) (A) (A) (A) (A) (A) (A) (A) (A) (A)
                 (A) (A) (A) (A) (A) (A) (A) (A) (A) (A) (A) (A)
                 (A) (A) (A) (A) (A) (A) (A) (A) (A) (A) (A) (A)
                 (A) (A) (A) (A) (A) (A) (A) (A) (A) (A) (A) (A)
                 (A) (A) (A) (A) (A) (A) (A) (A) (A) (A) (A) (A)
                 (A) (A) (A) (A) (A) (A) (A) (A) (A) (A) (A) (A)
                 (A) (A) (A) (A) (A) (A) (A) (A) (A) (A) (A) (A)
                 (A) (A) (A) (A) (A) (A) (A) (A) (A) (A) (A) (A)
                 (A) (A) (A)
       Virtual   (A) (A) (A) (A) (A) (A) (A) (A) (A) (A) (A) (A)
                 (A) (A) (A) (A) (A) (A) (A) (A) (A) (A) (A) (A)
                 (A) (A) (A) (A) (A) (A) (A) (A) (A) (A) (A) (A)
                 (A) (A) (A) (A) (A) (A) (A) (A) (A) (A) (A) (A)
                 (A) (A) (A) (A) (A) (A) (A) (A) (A) (A) (A) (A)
                 (A) (A) (A) (A) (A) (A) (A) (A) (A) (A) (A) (A)
                 (A) (A) (A) (A) (A) (A) (A) (A) (A) (A) (A) (A)
                 (A) (A) (A) (A) (A) (A) (A) (A) (A) (A) (A) (A)
                 (A) (A) (A) (A) (A) (A) (A) (A) (A) (A) (A) (A)
                 (A) (A) (A) (A) (A) (A) (A) (A) (A) (A) (A) (A)
                 (A) (A) (A) (A) (A) (A) (A) (A) (A) (A) (A) (A)
                 (A) (A) (A) (A) (A) (A) (A) (A) (A) (A) (A) (A)
                 (A) (A) (A) (A) (A) (A) (A) (A) (A) (A) (A) (A)
                 (A) (A) (A) (A) (A) (A) (A) (A) (A) (A) (A) (A)
                 (A) (A) (A) (A) (A) (A) (A) (A) (A) (A) (A) (A)
                 (A) (A) (A) (A) (A) (A) (A) (A) (A) (A) (A) (A)
                 (A) (A) (A) (A) (A) (A) (A) (A) (A) (A) (A) (A)
                 (A) (A) (A) (A) (A) (A) (A) (A) (A) (A) (A) (A)
                 (A) (A) (A) (A) (A) (A) (A) (A) (A) (A) (A) (A)
                 (A) (A) (A) (A) (A) (A) (A) (A) (A) (A) (A) (A)
                 (A) (A) (A) (A) (A) (A) (A) (A) (A) (A) (A) (A)
                 (A) (A) (A) (A) (A) (A) (A) (A) (A) (A) (A) (A)
                 (A) (A) (A) (A) (A) (A) (A) (A) (A) (A) (A) (A)
                 (A) (A) (A) (A) (A) (A) (A) (A) (A) (A) (A) (A)
                 (A) (A) (A) (A) (A) (A) (A) (A) (A) (A) (A) (A)
                 (A) (A) (A) (A) (A) (A) (A) (A) (A) (A) (A) (A)
                 (A) (A) (A) (A) (A) (A) (A) (A) (A) (A) (A) (A)
                 (A) (A) (A) (A) (A) (A) (A) (A) (A) (A) (A) (A)
                 (A) (A) (A) (A) (A) (A) (A) (A) (A) (A) (A) (A)
                 (A) (A) (A) (A) (A) (A) (A) (A) (A) (A) (A) (A)
                 (A) (A) (A) (A) (A) (A) (A) (A) (A) (A) (A) (A)
                 (A) (A) (A) (A) (A) (A) (A) (A) (A) (A) (A) (A)
                 (A) (A) (A) (A) (A) (A) (A) (A) (A) (A) (A) (A)
                 (A) (A) (A) (A) (A) (A) (A) (A) (A) (A) (A) (A)
                 (A) (A) (A) (A) (A) (A) (A) (A) (A) (A) (A) (A)
                 (A) (A) (A) (A) (A) (A) (A) (A) (A) (A) (A) (A)
                 (A) (A) (A) (A) (A) (A) (A) (A) (A) (A) (A) (A)
                 (A) (A) (A) (A) (A) (A) (A) (A) (A) (A) (A) (A)
                 (A) (A) (A) (A) (A) (A) (A) (A) (A) (A) (A) (A)
                 (A) (A) (A) (A) (A) (A) (A) (A) (A) (A) (A) (A)
                 (A) (A) (A) (A) (A) (A) (A) (A) (A) (A) (A) (A)
                 (A) (A) (A) (A) (A) (A) (A) (A) (A) (A) (A) (A)
                 (A) (A) (A) (A) (A) (A) (A) (A) (A) (A) (A) (A)
                 (A) (A) (A) (A) (A) (A) (A) (A) (A) (A) (A) (A)
                 (A) (A) (A) (A) (A) (A) (A) (A) (A) (A) (A) (A)
                 (A) (A) (A) (A) (A) (A) (A) (A) (A) (A) (A) (A)
                 (A) (A) (A) (A) (A) (A) (A) (A) (A) (A) (A) (A)
                 (A) (A) (A) (A) (A) (A) (A) (A) (A) (A) (A) (A)
                 (A) (A) (A) (A) (A) (A) (A) (A) (A) (A) (A) (A)
                 (A) (A) (A) (A) (A) (A) (A) (A) (A) (A) (A) (A)
                 (A) (A) (A) (A) (A) (A) (A) (A) (A) (A) (A) (A)
                 (A) (A) (A) (A) (A) (A) (A) (A) (A) (A) (A) (A)
                 (A) (A) (A) (A) (A) (A) (A) (A) (A) (A) (A) (A)
                 (A) (A) (A) (A) (A) (A) (A) (A) (A) (A) (A) (A)
                 (A) (A) (A) (A) (A) (A) (A) (A) (A) (A) (A) (A)
                 (A) (A) (A) (A) (A) (A) (A) (A) (A) (A) (A) (A)
                 (A) (A) (A) (A) (A) (A) (A) (A) (A) (A) (A) (A)
                 (A) (A) (A) (A) (A) (A) (A) (A) (A) (A) (A) (A)
                 (A) (A) (A) (A) (A) (A) (A) (A) (A) (A) (A) (A)
                 (A) (A) (A) (A) (A) (A) (A) (A) (A) (A) (A) (A)
                 (A) (A) (A) (A) (A) (A) (A) (A) (A) (A) (A) (A)
                 (A) (A) (A) (A) (A) (A) (A) (A) (A) (A) (A) (A)
                 (A) (A) (A) (A) (A) (A) (A) (A) (A) (A) (A) (A)
                 (A) (A) (A) (A) (A) (A) (A) (A) (A) (A) (A) (A)
                 (A) (A) (A) (A) (A) (A) (A) (A) (A) (A) (A) (A)
                 (A) (A) (A) (A) (A) (A) (A) (A) (A) (A) (A) (A)
                 (A) (A) (A) (A) (A) (A) (A) (A) (A) (A) (A) (A)
                 (A) (A) (A) (A) (A) (A) (A) (A) (A) (A) (A) (A)
                 (A) (A) (A) (A) (A) (A) (A) (A) (A) (A) (A) (A)
                 (A) (A) (A) (A) (A) (A) (A) (A) (A) (A) (A) (A)
                 (A) (A) (A) (A) (A) (A) (A) (A) (A) (A) (A) (A)
                 (A) (A) (A) (A) (A) (A) (A) (A) (A) (A) (A) (A)
                 (A) (A) (A) (A) (A) (A) (A) (A) (A) (A) (A) (A)
                 (A) (A) (A) (A) (A) (A) (A) (A) (A) (A) (A) (A)
                 (A) (A) (A) (A) (A) (A) (A) (A) (A) (A) (A) (A)
                 (A) (A) (A) (A) (A) (A) (A) (A) (A) (A) (A) (A)
                 (A) (A) (A) (A) (A) (A) (A) (A) (A) (A) (A) (A)
                 (A) (A) (A) (A) (A) (A) (A) (A) (A) (A) (A) (A)
                 (A) (A) (A) (A) (A) (A) (A) (A) (A) (A) (A) (A)
                 (A) (A) (A) (A) (A) (A) (A) (A) (A) (A) (A) (A)
                 (A) (A) (A) (A) (A) (A) (A) (A) (A) (A) (A) (A)
                 (A) (A) (A) (A) (A) (A) (A) (A) (A) (A) (A) (A)
                 (A) (A) (A) (A) (A) (A) (A) (A) (A) (A) (A) (A)
                 (A) (A) (A) (A) (A) (A) (A) (A) (A) (A) (A) (A)
                 (A) (A) (A) (A) (A) (A) (A) (A) (A) (A) (A) (A)
                 (A) (A) (A) (A) (A) (A) (A) (A) (A) (A) (A) (A)
                 (A) (A) (A) (A) (A) (A) (A) (A)
   300 initial guesses have been made.
 Convergence on wavefunction:    0.001000000000000
 Iteration     1 Dimension   300 NMult     0 NNew    300
 CISAX will form   160 AO SS matrices at one time.
 Defaulting to unpruned grid for atomic number  78.
 Defaulting to unpruned grid for atomic number  78.
 Defaulting to unpruned grid for atomic number  78.
 Defaulting to unpruned grid for atomic number  78.
 Defaulting to unpruned grid for atomic number  78.
 Defaulting to unpruned grid for atomic number  78.
 Defaulting to unpruned grid for atomic number  78.
 Defaulting to unpruned grid for atomic number  78.
 Defaulting to unpruned grid for atomic number  78.
 Defaulting to unpruned grid for atomic number  78.
 Defaulting to unpruned grid for atomic number  78.
 Defaulting to unpruned grid for atomic number  78.
 Defaulting to unpruned grid for atomic number  78.
 Defaulting to unpruned grid for atomic number  78.
 Defaulting to unpruned grid for atomic number  78.
 Defaulting to unpruned grid for atomic number  78.
 New state      3 was old state      4
 New state      4 was old state      5
 New state      5 was old state      6
 New state      6 was old state      9
 New state      7 was old state     10
 New state      9 was old state     22
 New state     10 was old state     11
 New state     11 was old state     12
 New state     12 was old state     13
 New state     13 was old state      7
 New state     15 was old state     17
 New state     17 was old state     21
 New state     18 was old state     19
 New state     19 was old state     23
 New state     20 was old state     24
 New state     21 was old state     18
 New state     22 was old state     25
 New state     23 was old state     15
 New state     24 was old state     20
 New state     25 was old state     27
 New state     27 was old state     30
 New state     29 was old state     52
 New state     30 was old state     31
 New state     31 was old state     33
 New state     33 was old state     46
 New state     34 was old state     37
 New state     35 was old state     34
 New state     36 was old state     29
 New state     37 was old state     35
 New state     38 was old state     36
 New state     40 was old state     55
 New state     41 was old state     38
 New state     42 was old state     41
 New state     43 was old state     58
 New state     44 was old state     40
 New state     45 was old state     47
 New state     46 was old state     43
 New state     47 was old state     48
 New state     48 was old state     59
 New state     49 was old state     42
 New state     50 was old state     45
 New state     51 was old state     44
 New state     52 was old state     49
 New state     53 was old state     54
 New state     54 was old state     53
 New state     55 was old state     51
 New state     56 was old state     62
 New state     58 was old state     56
 New state     59 was old state     85
 New state     61 was old state     63
 New state     62 was old state     64
 New state     63 was old state     61
 New state     64 was old state     67
 New state     67 was old state     72
 New state     69 was old state     71
 New state     70 was old state     73
 New state     71 was old state    124
 New state     72 was old state     94
 New state     73 was old state     75
 New state     74 was old state     84
 New state     75 was old state     74
 Iteration     2 Dimension   450 NMult   300 NNew    150
 New state      8 was old state     13
 New state      9 was old state      8
 New state     10 was old state     12
 New state     11 was old state      9
 New state     12 was old state     11
 New state     13 was old state     10
 New state     14 was old state     15
 New state     15 was old state     14
 New state     16 was old state     17
 New state     17 was old state     21
 New state     18 was old state     16
 New state     19 was old state     23
 New state     20 was old state     37
 New state     21 was old state     18
 New state     23 was old state     19
 New state     24 was old state     20
 New state     25 was old state     24
 New state     26 was old state     27
 New state     27 was old state     25
 New state     28 was old state     26
 New state     29 was old state     33
 New state     30 was old state     28
 New state     31 was old state     29
 New state     32 was old state     30
 New state     33 was old state     31
 New state     34 was old state     35
 New state     35 was old state     32
 New state     36 was old state     34
 New state     37 was old state     38
 New state     38 was old state     36
 New state     39 was old state     41
 New state     41 was old state     39
 New state     42 was old state     44
 New state     44 was old state     42
 New state     45 was old state     46
 New state     46 was old state     48
 New state     47 was old state     45
 New state     48 was old state     50
 New state     49 was old state     47
 New state     50 was old state     49
 New state     51 was old state     56
 New state     52 was old state     51
 New state     53 was old state     52
 New state     54 was old state     55
 New state     55 was old state     59
 New state     56 was old state     54
 New state     57 was old state     53
 New state     58 was old state     57
 New state     59 was old state     62
 New state     60 was old state     58
 New state     61 was old state     60
 New state     62 was old state     61
 New state     63 was old state     65
 New state     64 was old state     71
 New state     65 was old state     63
 New state     66 was old state     87
 New state     67 was old state     64
 New state     68 was old state     80
 New state     69 was old state     68
 New state     70 was old state     69
 New state     71 was old state     67
 New state     72 was old state     66
 New state     73 was old state     70
 New state     74 was old state     72
 New state     75 was old state     88
 Iteration     3 Dimension   600 NMult   450 NNew    150
 New state     12 was old state     13
 New state     13 was old state     12
 New state     27 was old state     28
 New state     28 was old state     27
 New state     69 was old state     70
 New state     70 was old state     69
 New state     73 was old state     75
 New state     74 was old state     73
 New state     75 was old state     74
 Iteration     4 Dimension   746 NMult   600 NNew    146
 Iteration     5 Dimension   818 NMult   746 NNew     72
 Iteration     6 Dimension   834 NMult   818 NNew     16
 ***********************************************************************
 Excited states from <AA,BB:AA,BB> singles matrix:
 ***********************************************************************
 
 Ground to excited state transition densities written to RWF  633
 Ground to excited state transition electric dipole moments (Au):
       state          X           Y           Z        Dip. S.      Osc.
         1        -2.0150      0.0003     -0.0001      4.0601      0.1949
         2        -0.0001     -0.7511     -0.0325      0.5652      0.0309
         3        -0.1289      0.0000     -0.0001      0.0166      0.0010
         4         0.0002      1.2055      0.0762      1.4590      0.0922
         5         0.0022      0.0003      0.0000      0.0000      0.0000
         6        -0.0010      0.5471      0.0172      0.2996      0.0208
         7         0.0345      0.0023     -0.0001      0.0012      0.0001
         8        -2.1230     -0.0026     -0.0002      4.5070      0.3204
         9         0.0019     -1.2860     -0.0076      1.6539      0.1180
        10        -0.0012      1.7739      0.1018      3.1572      0.2260
        11        -0.4011      0.0006      0.0000      0.1609      0.0117
        12        -0.0001      1.1172      0.0776      1.2541      0.0924
        13         0.0470      0.0048      0.0003      0.0022      0.0002
        14        -0.0001     -1.8918     -0.0348      3.5802      0.2647
        15        -0.2316      0.0001      0.0000      0.0537      0.0041
        16        -0.5533      0.0002      0.0000      0.3061      0.0235
        17        -0.0003     -0.4279      0.1324      0.2006      0.0156
        18         0.3170     -0.0003      0.0001      0.1005      0.0078
        19        -0.0001     -0.2474      0.1147      0.0744      0.0059
        20        -0.0003     -1.7481     -0.0344      3.0570      0.2444
        21        -0.0007      0.2259      0.0160      0.0513      0.0042
        22        -0.5584      0.0007      0.0001      0.3118      0.0253
        23         0.1566      0.0012      0.0000      0.0245      0.0020
        24         0.0004      0.1010     -0.0060      0.0102      0.0008
        25        -0.0253      0.0001      0.0000      0.0006      0.0001
        26        -0.0002     -0.2542     -0.0638      0.0687      0.0058
        27        -0.0140      0.0001     -0.0002      0.0002      0.0000
        28        -0.0001     -0.0145      0.0151      0.0004      0.0000
        29         0.1907     -0.0001     -0.0002      0.0364      0.0032
        30         0.0316      0.0001      0.0000      0.0010      0.0001
        31         0.0002      0.2210     -0.0192      0.0492      0.0043
        32         0.0011      0.0325      0.0053      0.0011      0.0001
        33        -0.2137      0.0016     -0.0001      0.0457      0.0041
        34        -0.8510     -0.0001     -0.0002      0.7241      0.0646
        35         0.0000      0.1589     -0.0345      0.0264      0.0024
        36        -0.0001      0.1440     -0.0258      0.0214      0.0019
        37        -0.1254      0.0001      0.0001      0.0157      0.0014
        38        -0.0001     -0.2944     -0.0478      0.0889      0.0080
        39        -0.3076      0.0001     -0.0001      0.0946      0.0086
        40         0.0001     -0.7158      0.0261      0.5130      0.0470
        41         0.0114     -0.0008      0.0000      0.0001      0.0000
        42        -0.7015      0.0003      0.0000      0.4921      0.0452
        43         0.1731      0.0000      0.0000      0.0300      0.0028
        44        -0.0003     -1.2951      0.0038      1.6772      0.1566
        45         0.0004      1.3115     -0.0227      1.7204      0.1606
        46        -0.1624      0.0035      0.0002      0.0264      0.0025
        47         0.0135     -0.0027     -0.0004      0.0002      0.0000
        48        -0.0007     -0.9589     -0.0844      0.9266      0.0871
        49         0.0000     -0.0647     -0.0023      0.0042      0.0004
        50        -0.2079      0.0000      0.0001      0.0432      0.0041
        51         0.0003      0.4662     -0.0211      0.2178      0.0209
        52        -0.1240      0.0001      0.0000      0.0154      0.0015
        53        -0.1491      0.0000      0.0000      0.0222      0.0021
        54         0.0000     -0.5149      0.0271      0.2658      0.0258
        55        -1.0020      0.0002      0.0002      1.0041      0.0975
        56        -0.2917     -0.0005      0.0004      0.0851      0.0083
        57        -0.0013      0.0811     -0.0723      0.0118      0.0012
        58        -0.6396      0.0000      0.0000      0.4090      0.0406
        59         0.0002     -0.1905     -0.0013      0.0363      0.0037
        60        -0.0001     -0.3640     -0.0144      0.1327      0.0135
        61         0.0000     -0.3500     -0.0198      0.1229      0.0125
        62         0.0694      0.0001      0.0000      0.0048      0.0005
        63         0.0002      1.2435     -0.0041      1.5463      0.1590
        64        -0.7103      0.0002      0.0000      0.5045      0.0521
        65         0.0000      0.3007     -0.0922      0.0989      0.0103
        66         0.0001      0.2726      0.0337      0.0755      0.0079
        67        -0.0004      0.0376      0.0178      0.0017      0.0002
        68        -0.7505     -0.0003      0.0000      0.5633      0.0595
        69        -0.0012      0.1373      0.0280      0.0196      0.0021
        70        -0.0002     -0.0732     -0.0010      0.0054      0.0006
        71         0.4005     -0.0002      0.0001      0.1604      0.0171
        72        -0.4780      0.0002     -0.0001      0.2285      0.0244
        73        -0.0356     -0.0001     -0.0002      0.0013      0.0001
        74        -0.0442      0.0003      0.0000      0.0020      0.0002
        75         0.0000     -0.0310      0.0484      0.0033      0.0004
 Ground to excited state transition velocity dipole moments (Au):
       state          X           Y           Z        Dip. S.      Osc.
         1         0.1392      0.0000      0.0000      0.0194      0.1795
         2         0.0000      0.0602      0.0020      0.0036      0.0295
         3         0.0099      0.0000      0.0000      0.0001      0.0008
         4         0.0000     -0.1070     -0.0066      0.0115      0.0809
         5         0.0006      0.0000      0.0000      0.0000      0.0000
         6         0.0001     -0.0549     -0.0079      0.0031      0.0197
         7        -0.0026     -0.0002      0.0000      0.0000      0.0000
         8         0.2209      0.0003      0.0000      0.0488      0.3049
         9        -0.0002      0.1325     -0.0011      0.0176      0.1094
        10         0.0001     -0.1830     -0.0098      0.0336      0.2085
        11         0.0420     -0.0001      0.0000      0.0018      0.0108
        12         0.0000     -0.1178     -0.0077      0.0139      0.0841
        13        -0.0046     -0.0005      0.0000      0.0000      0.0001
        14         0.0000      0.1996      0.0037      0.0399      0.2396
        15         0.0316      0.0000      0.0000      0.0010      0.0058
        16         0.0599      0.0000      0.0000      0.0036      0.0208
        17         0.0000      0.0501     -0.0142      0.0027      0.0155
        18        -0.0285      0.0000      0.0000      0.0008      0.0046
        19         0.0000      0.0270     -0.0150      0.0010      0.0053
        20         0.0000      0.2076      0.0041      0.0431      0.2396
        21         0.0001     -0.0275     -0.0047      0.0008      0.0043
        22         0.0687     -0.0001      0.0000      0.0047      0.0258
        23        -0.0194     -0.0001      0.0000      0.0004      0.0020
        24         0.0000     -0.0128      0.0077      0.0002      0.0012
        25         0.0029      0.0000      0.0000      0.0000      0.0000
        26         0.0000      0.0313      0.0095      0.0011      0.0056
        27         0.0018      0.0000      0.0000      0.0000      0.0000
        28         0.0000      0.0023     -0.0008      0.0000      0.0000
        29        -0.0255      0.0000      0.0000      0.0007      0.0033
        30        -0.0043      0.0000      0.0000      0.0000      0.0001
        31         0.0000     -0.0283      0.0042      0.0008      0.0042
        32        -0.0001     -0.0041      0.0024      0.0000      0.0001
        33         0.0266     -0.0002      0.0000      0.0007      0.0035
        34         0.1091      0.0000      0.0000      0.0119      0.0593
        35         0.0000     -0.0142      0.0036      0.0002      0.0011
        36         0.0000     -0.0191      0.0024      0.0004      0.0018
        37         0.0110      0.0000      0.0000      0.0001      0.0006
        38         0.0000      0.0395      0.0059      0.0016      0.0079
        39         0.0435      0.0000      0.0000      0.0019      0.0093
        40         0.0000      0.0968     -0.0033      0.0094      0.0455
        41        -0.0014      0.0001      0.0000      0.0000      0.0000
        42         0.0951      0.0000      0.0000      0.0090      0.0437
        43        -0.0238      0.0000      0.0000      0.0006      0.0027
        44         0.0000      0.1783      0.0005      0.0318      0.1513
        45        -0.0001     -0.1809      0.0050      0.0327      0.1558
        46         0.0205     -0.0005      0.0000      0.0004      0.0020
        47        -0.0023      0.0004      0.0001      0.0000      0.0000
        48         0.0001      0.1322      0.0113      0.0176      0.0832
        49         0.0000      0.0093      0.0058      0.0001      0.0006
        50         0.0264      0.0000      0.0000      0.0007      0.0032
        51         0.0000     -0.0672      0.0031      0.0045      0.0210
        52         0.0173      0.0000      0.0000      0.0003      0.0014
        53         0.0169      0.0000      0.0000      0.0003      0.0013
        54         0.0000      0.0737     -0.0033      0.0054      0.0249
        55         0.1395      0.0000      0.0000      0.0195      0.0890
        56         0.0432      0.0001      0.0000      0.0019      0.0085
        57         0.0002     -0.0115      0.0094      0.0002      0.0010
        58         0.0974      0.0000      0.0000      0.0095      0.0425
        59         0.0000      0.0253     -0.0002      0.0006      0.0028
        60         0.0000      0.0531      0.0012      0.0028      0.0123
        61         0.0000      0.0547      0.0017      0.0030      0.0131
        62        -0.0026      0.0000      0.0000      0.0000      0.0000
        63         0.0000     -0.1883      0.0028      0.0355      0.1533
        64         0.1052      0.0000      0.0000      0.0111      0.0476
        65         0.0000     -0.0472      0.0132      0.0024      0.0102
        66         0.0000     -0.0413     -0.0049      0.0017      0.0073
        67         0.0001     -0.0054     -0.0037      0.0000      0.0002
        68         0.1160      0.0001      0.0000      0.0135      0.0567
        69         0.0002     -0.0204     -0.0054      0.0004      0.0019
        70         0.0000      0.0131     -0.0005      0.0002      0.0007
        71        -0.0603      0.0000      0.0000      0.0036      0.0152
        72         0.0712      0.0000      0.0000      0.0051      0.0211
        73         0.0039      0.0000      0.0000      0.0000      0.0001
        74         0.0062      0.0000      0.0000      0.0000      0.0002
        75         0.0000      0.0050     -0.0107      0.0001      0.0006
 Ground to excited state transition magnetic dipole moments (Au):
       state          X           Y           Z
         1        -0.0002     -0.0336     -1.7482
         2         0.0493      0.0001      0.0000
         3        -0.0001      0.0632     -1.1327
         4        -0.0562      0.0000      0.0001
         5         0.0000      0.1118      0.0322
         6        -0.0792     -0.0001      0.0002
         7         0.0002      0.0736      0.0271
         8        -0.0002     -0.2667     -0.6284
         9        -0.0706      0.0004      0.0007
        10         0.0509     -0.0003     -0.0005
        11        -0.0001     -0.2735     -0.2879
        12        -0.0336      0.0000     -0.0004
        13        -0.0001     -0.0022      0.0966
        14         0.0203      0.0000     -0.0001
        15         0.0000     -0.0055     -0.4158
        16         0.0000     -0.1796      1.4008
        17         0.0931      0.0002     -0.0001
        18         0.0001      0.0120      0.3117
        19         0.0966      0.0000      0.0001
        20        -0.0594      0.0002     -0.0002
        21        -0.0822     -0.0001     -0.0007
        22         0.0002     -0.1366     -0.5596
        23         0.0000     -0.0198      0.0587
        24         0.0048      0.0001      0.0003
        25         0.0000      0.0236     -0.0755
        26        -0.1300      0.0000     -0.0002
        27        -0.0002     -0.0795     -0.1439
        28         0.0190     -0.0006     -0.0010
        29        -0.0001     -0.1706     -0.3540
        30         0.0002     -0.0659     -0.0435
        31        -0.1626     -0.0001      0.0001
        32         0.0070      0.0000      0.0004
        33        -0.0002     -0.0478     -0.1478
        34        -0.0001      0.0087     -0.3703
        35        -0.0137      0.0000      0.0000
        36        -0.0106      0.0001      0.0000
        37         0.0000      0.1441      0.0447
        38         0.0894      0.0000      0.0000
        39         0.0000      0.0079     -0.3926
        40         0.1833      0.0000      0.0000
        41         0.0002     -0.0312     -0.1019
        42         0.0001      0.2671      0.4491
        43         0.0000      0.0967     -0.3634
        44         0.1936      0.0001     -0.0007
        45        -0.2823     -0.0001      0.0001
        46        -0.0002     -0.0160     -0.5863
        47        -0.0007     -0.0845      0.0702
        48        -0.0969      0.0005     -0.0012
        49         0.0169      0.0001     -0.0005
        50        -0.0001     -0.0391      0.0954
        51         0.1350     -0.0001     -0.0002
        52         0.0000      0.0215      0.0771
        53         0.0001     -0.0324      0.0629
        54         0.0997      0.0001      0.0000
        55        -0.0001     -0.0745     -0.2470
        56         0.0004     -0.0666      0.0905
        57        -0.0841     -0.0003      0.0004
        58        -0.0001     -0.1285      0.2096
        59        -0.1470      0.0001      0.0000
        60         0.1148      0.0000      0.0000
        61         0.0283      0.0001      0.0000
        62         0.0000      0.0611     -0.1069
        63        -0.4513      0.0001      0.0001
        64        -0.0002     -0.6192     -0.0473
        65        -0.3824     -0.0002     -0.0001
        66         0.0816      0.0000      0.0001
        67         0.1422      0.0000     -0.0001
        68        -0.0008     -0.0818     -0.1002
        69         0.3806     -0.0001     -0.0002
        70         0.0764      0.0000      0.0000
        71         0.0001      0.0558      0.0366
        72        -0.0001     -0.0512     -0.0091
        73         0.0000     -0.0494     -0.1778
        74         0.0000     -0.1006      0.0510
        75         0.0051     -0.0001     -0.0001
 Ground to excited state transition velocity quadrupole moments (Au):
       state          XX          YY          ZZ          XY          XZ          YZ
         1         0.0000      0.0001      0.0000     -0.5892      0.0542     -0.0001
         2         0.2876     -0.7517      0.0169     -0.0001     -0.0001      0.0177
         3         0.0000      0.0001      0.0000     -0.5023     -0.0298     -0.0001
         4        -0.1525      0.3664      0.0075      0.0001      0.0001      0.0823
         5         0.0003     -0.0002      0.0000      0.0129     -0.0202      0.0000
         6         0.0800      0.0303     -0.0096      0.0000      0.0001      0.0463
         7         0.0013     -0.0003      0.0001      0.0120     -0.0657      0.0001
         8        -0.0004      0.0000      0.0000     -0.6572      0.0554     -0.0004
         9        -0.1403      0.0021     -0.0002      0.0007     -0.0001     -0.1445
        10         0.1448      0.0185      0.0093     -0.0004      0.0002      0.0912
        11         0.0001      0.0001      0.0000     -0.1297      0.0218      0.0000
        12         0.0543      0.2609     -0.0167      0.0000     -0.0002      0.1118
        13         0.0002      0.0012      0.0000      0.0013      0.0658      0.0005
        14        -0.2913     -0.4901     -0.0020     -0.0001     -0.0002     -0.1235
        15         0.0000      0.0000      0.0000     -0.0717      0.0015      0.0000
        16        -0.0001      0.0001      0.0000     -0.1075      0.0046      0.0000
        17        -0.7684     -0.0420      0.0031      0.0000     -0.0001      0.0459
        18        -0.0004      0.0000      0.0000      0.0609     -0.0343      0.0000
        19        -0.3238      0.0605      0.0477      0.0001     -0.0001      0.1024
        20        -0.2388      0.4719     -0.0326      0.0003     -0.0001     -0.1243
        21        -0.0098      0.0180      0.0153      0.0007      0.0001     -0.0455
        22         0.0002     -0.0007      0.0000      0.2083      0.0713      0.0002
        23         0.0003     -0.0001      0.0000      0.0406      0.0522      0.0001
        24        -0.0047     -0.0012      0.0061      0.0010      0.0000      0.0396
        25         0.0001      0.0000      0.0000     -0.2408     -0.0039     -0.0001
        26         0.0995      0.6192     -0.0305      0.0000      0.0001     -0.0836
        27        -0.0001      0.0012      0.0000     -0.6023     -0.0080     -0.0001
        28         0.0082     -0.1390      0.0047     -0.0048      0.0000      0.0086
        29         0.0000      0.0000     -0.0001     -1.1652     -0.0345     -0.0002
        30        -0.0001      0.0006      0.0000     -0.0125      0.0087      0.0000
        31         0.0539     -0.0961      0.0016      0.0002      0.0000      0.0192
        32         0.0172      0.0113      0.0054      0.0015      0.0000     -0.0097
        33         0.0002      0.0010      0.0000     -0.3816      0.0270      0.0000
        34        -0.0003      0.0001     -0.0001     -1.5366     -0.0354     -0.0003
        35         0.2299     -0.2673     -0.0280     -0.0001      0.0000      0.0079
        36         0.2213      0.1164      0.0348     -0.0001     -0.0001      0.0038
        37         0.0001     -0.0001      0.0000      0.4028      0.0233      0.0001
        38        -0.0006     -0.2931     -0.0001     -0.0002      0.0000      0.0640
        39        -0.0001      0.0000      0.0000     -0.5874     -0.0316     -0.0001
        40        -0.0297     -0.7128      0.0055      0.0002     -0.0001     -0.0286
        41        -0.0001     -0.0008      0.0000     -0.1075      0.0065     -0.0001
        42         0.0001      0.0002      0.0001     -0.2948     -0.0055     -0.0001
        43         0.0001      0.0000      0.0000      0.1839     -0.0201      0.0000
        44        -0.1356     -1.1873      0.0238      0.0001     -0.0002     -0.0127
        45         0.1256      1.2492     -0.0099      0.0000      0.0002     -0.0073
        46         0.0001      0.0035      0.0000      0.4544     -0.0227      0.0003
        47         0.0010     -0.0039     -0.0001     -0.0526      0.0852     -0.0007
        48         0.1058     -1.0857     -0.0058      0.0008     -0.0006     -0.1512
        49        -0.0054     -0.0626      0.0068      0.0003      0.0000      0.0189
        50         0.0000      0.0000      0.0000      0.4485      0.0514      0.0000
        51         0.2586     -0.5652      0.0083      0.0000     -0.0001      0.0337
        52         0.0000     -0.0002      0.0000      0.0098     -0.0442      0.0000
        53         0.0000     -0.0003      0.0000      0.3620      0.0695      0.0001
        54        -0.3384     -0.5730     -0.0176     -0.0002     -0.0001     -0.0077
        55         0.0002     -0.0003      0.0000      1.4608      0.1786      0.0002
        56         0.0001     -0.0007      0.0000      0.0475     -0.0369      0.0001
        57        -0.0148      0.1056      0.0138      0.0002     -0.0002     -0.0022
        58        -0.0001     -0.0002      0.0000      0.0260      0.1015      0.0001
        59        -0.3314      0.2711     -0.0189      0.0001      0.0001     -0.0608
        60         0.1595     -0.5054      0.0400      0.0000     -0.0001      0.0002
        61         0.0944     -0.6598      0.0084     -0.0001     -0.0001     -0.0085
        62         0.0001      0.0001      0.0000      0.0894     -0.0129      0.0000
        63         0.1506      2.0275      0.0003      0.0002      0.0003      0.0028
        64         0.0002      0.0002      0.0000      0.2558      0.0515      0.0000
        65         0.2167      1.7618     -0.0195      0.0002      0.0003     -0.1704
        66        -0.1104     -0.5691      0.0362      0.0000     -0.0001      0.0776
        67        -0.0253      0.0831      0.0106      0.0004      0.0000     -0.0404
        68         0.0003     -0.0004      0.0000      0.3583      0.1400      0.0000
        69        -0.1424      0.1172      0.0022      0.0009      0.0002      0.0210
        70         0.2247      0.1307      0.0416      0.0001      0.0000     -0.0231
        71         0.0004     -0.0002      0.0000      1.0093     -0.0238      0.0002
        72        -0.0003      0.0003     -0.0001     -0.9081      0.0285     -0.0002
        73        -0.0002     -0.0003      0.0000     -1.2692     -0.0098     -0.0003
        74        -0.0008      0.0003      0.0000     -0.2056      0.0810      0.0001
        75        -0.0265     -0.2438      0.0075      0.0000      0.0000     -0.1157
 <0|del|b> * <b|rxdel|0> + <0|del|b> * <b|delr+rdel|0>
 Rotatory Strengths (R) in cgs (10**-40 erg-esu-cm/Gauss)
       state          XX          YY          ZZ    R(velocity)    E-M Angle
         1        -0.0976     -0.2401     -0.0550     -0.1309       90.00
         2         0.0596      0.0034     -0.0059      0.0190       90.00
         3        -0.0746     -0.0353      0.0013     -0.0362       90.00
         4         0.0406     -0.0013     -0.0024      0.0123       90.00
         5        -0.0147      0.0004     -0.0108     -0.0083       90.00
         6         0.0258     -0.0151     -0.0414     -0.0102       90.00
         7        -0.1086     -0.0024     -0.0069     -0.0393       90.00
         8        -0.3790     -0.4823     -0.0378     -0.2997       90.05
         9         0.2179      0.1375      0.0624      0.1393       90.00
        10         0.3274      0.0569      0.0718      0.1520       90.00
        11         0.0552     -0.0069      0.0398      0.0294       90.00
        12        -0.0600      0.0131      0.0713      0.0082       90.00
        13         0.0984     -0.0171     -0.0941     -0.0043       90.00
        14         0.1380     -0.0032     -0.0966      0.0127       90.00
        15        -0.0057     -0.0017      0.0017     -0.0019       90.00
        16         0.0198     -0.0006      0.0179      0.0124       90.00
        17         0.0576      0.0135      0.0131      0.0281       90.00
        18        -0.0093     -0.0154     -0.0071     -0.0106       90.00
        19        -0.0065      0.0060     -0.0080     -0.0028       90.00
        20         0.1394     -0.0316      0.0576      0.0551       90.00
        21         0.0169     -0.0094     -0.0056      0.0006       90.00
        22         0.0534      0.0846     -0.0009      0.0457       90.00
        23         0.0284     -0.0065     -0.0075      0.0048       90.00
        24         0.0252     -0.0206     -0.0028      0.0006       90.00
        25        -0.0010     -0.0004      0.0000     -0.0005       90.00
        26        -0.0147     -0.0205     -0.0030     -0.0127       90.00
        27        -0.0416      0.0256      0.0031     -0.0043       90.00
        28         0.0080     -0.0057     -0.0032     -0.0003       90.00
        29        -0.0722      0.0525     -0.0221     -0.0139       90.00
        30         0.0040     -0.0016     -0.0010      0.0005       90.00
        31         0.0101      0.0065      0.0150      0.0106       90.00
        32         0.0122     -0.0061     -0.0061      0.0000       90.00
        33         0.0271     -0.0122     -0.0031      0.0040       90.00
        34        -0.1173     -0.0386      0.0668     -0.0297       90.00
        35        -0.0012      0.0006     -0.0011     -0.0006       90.00
        36        -0.0072      0.0006     -0.0013     -0.0026       90.00
        37        -0.0166      0.0136     -0.0083     -0.0038       90.00
        38        -0.0029      0.0079     -0.0059     -0.0003       90.00
        39        -0.0400     -0.0079      0.0104     -0.0125       90.00
        40         0.0224     -0.0017     -0.0346     -0.0046       90.00
        41        -0.0062     -0.0007     -0.0076     -0.0048       90.00
        42        -0.0246     -0.0085      0.0071     -0.0087       90.00
        43        -0.0037      0.0033     -0.0044     -0.0016       90.00
        44         0.0994      0.0168     -0.0285      0.0292       90.00
        45         0.1469      0.0452     -0.0168      0.0584       90.00
        46        -0.0020      0.0551      0.0204      0.0245       90.00
        47        -0.1574      0.0260      0.0008     -0.0435       90.00
        48         0.3684     -0.1123     -0.0094      0.0822       90.00
        49        -0.0021     -0.0118      0.0018     -0.0040       90.00
        50        -0.0189      0.0104     -0.0061     -0.0049       90.00
        51        -0.0056     -0.0209      0.0218     -0.0016       90.00
        52        -0.0019      0.0010     -0.0004     -0.0004       90.00
        53        -0.0082      0.0112     -0.0006      0.0008       90.00
        54         0.0387     -0.0027     -0.0125      0.0078       90.00
        55        -0.0839      0.1752     -0.0831      0.0027       90.00
        56        -0.0192      0.0421      0.0180      0.0137       90.00
        57         0.0167     -0.0353     -0.0261     -0.0149       90.00
        58         0.0025     -0.0017     -0.0301     -0.0098       90.00
        59         0.0028      0.0078      0.0132      0.0079       90.00
        60         0.0196      0.0014     -0.0077      0.0044       90.00
        61         0.0294      0.0002     -0.0014      0.0094       90.00
        62        -0.0015     -0.0023     -0.0005     -0.0014       90.00
        63         0.0793      0.0307     -0.1197     -0.0032       90.00
        64         0.0409     -0.0467     -0.0051     -0.0036       90.00
        65         0.0582     -0.0175     -0.0200      0.0069       90.00
        66        -0.0076     -0.0065      0.0056     -0.0029       90.00
        67        -0.0022      0.0154      0.0200      0.0111       90.00
        68        -0.0222     -0.2174     -0.2228     -0.1541       90.40
        69         0.0038      0.1765      0.1425      0.1076       90.00
        70         0.0016      0.0021      0.0027      0.0021       90.00
        71        -0.0048     -0.0358      0.0063     -0.0114       90.00
        72         0.0028     -0.0496      0.0097     -0.0124       90.00
        73        -0.0523      0.0363      0.0017     -0.0047       90.00
        74         0.0179      0.0045      0.0010      0.0078       90.00
        75         0.0007      0.0011     -0.0008      0.0003       90.00
 1/2[<0|r|b>*<b|rxdel|0> + (<0|rxdel|b>*<b|r|0>)*]
 Rotatory Strengths (R) in cgs (10**-40 erg-esu-cm/Gauss)
       state          XX          YY          ZZ     R(length)
         1        -0.2513      0.0082     -0.1652     -0.1361
         2         0.0041      0.0546      0.0009      0.0199
         3        -0.0059     -0.0019     -0.0908     -0.0329
         4         0.0071      0.0346     -0.0038      0.0127
         5         0.0000     -0.0269      0.0007     -0.0087
         6        -0.0543      0.0345     -0.0023     -0.0073
         7        -0.0050     -0.1205      0.0011     -0.0415
         8        -0.3378     -0.4981     -0.0787     -0.3049
         9         0.0933      0.3453      0.0035      0.1474
        10         0.0424      0.4015      0.0335      0.1592
        11        -0.0158      0.1149     -0.0010      0.0327
        12        -0.0030      0.0070      0.0223      0.0088
        13         0.0040      0.0075     -0.0231     -0.0039
        14         0.0017      0.0399     -0.0015      0.0134
        15         0.0035      0.0004     -0.0082     -0.0014
        16        -0.0032      0.0279      0.0094      0.0114
        17         0.0188      0.0616      0.0107      0.0303
        18        -0.0140      0.0024     -0.0307     -0.0141
        19         0.0058     -0.0059     -0.0070     -0.0024
        20        -0.0125      0.1897     -0.0059      0.0571
        21        -0.0386      0.0189      0.0084     -0.0038
        22         0.0594      0.0714      0.0274      0.0527
        23        -0.0005      0.0171     -0.0014      0.0051
        24        -0.0012     -0.0107      0.0013     -0.0035
        25        -0.0007     -0.0012     -0.0019     -0.0013
        26        -0.0167     -0.0082     -0.0082     -0.0111
        27        -0.0021      0.0063     -0.0191     -0.0049
        28         0.0010     -0.0067      0.0111      0.0018
        29         0.0078     -0.0155     -0.0462     -0.0179
        30        -0.0051      0.0064      0.0012      0.0008
        31         0.0185      0.0116      0.0016      0.0106
        32        -0.0054     -0.0002     -0.0015     -0.0023
        33        -0.0338      0.0532     -0.0062      0.0044
        34        -0.0454      0.0007     -0.0489     -0.0312
        35         0.0000     -0.0025      0.0004     -0.0007
        36        -0.0004     -0.0077      0.0000     -0.0027
        37         0.0033     -0.0105     -0.0025     -0.0032
        38         0.0055     -0.0063     -0.0006     -0.0005
        39        -0.0057     -0.0005     -0.0252     -0.0105
        40        -0.0089     -0.0058      0.0008     -0.0046
        41        -0.0019     -0.0167      0.0027     -0.0053
        42         0.0256     -0.0511     -0.0003     -0.0086
        43         0.0016     -0.0002      0.0015      0.0010
        44         0.0408      0.0523      0.0018      0.0316
        45         0.0883      0.0890      0.0018      0.0597
        46        -0.0231      0.0401      0.0692      0.0287
        47         0.0069     -0.1622      0.0221     -0.0444
        48        -0.0450      0.3664     -0.0734      0.0827
        49         0.0001      0.0031     -0.0009      0.0008
        50        -0.0080     -0.0010     -0.0063     -0.0051
        51        -0.0289      0.0297     -0.0029     -0.0007
        52        -0.0005     -0.0016      0.0004     -0.0006
        53         0.0063     -0.0006     -0.0022      0.0012
        54        -0.0019      0.0259      0.0004      0.0081
        55        -0.0391      0.0122      0.0420      0.0050
        56         0.0811     -0.0220     -0.0234      0.0119
        57        -0.0790      0.0174      0.0203     -0.0138
        58        -0.0333      0.0045      0.0002     -0.0095
        59         0.0173      0.0146      0.0000      0.0107
        60         0.0048      0.0112      0.0001      0.0054
        61        -0.0009      0.0284      0.0000      0.0092
        62         0.0021     -0.0032      0.0007     -0.0001
        63         0.0635     -0.0750      0.0004     -0.0037
        64        -0.0962      0.1015      0.0014      0.0022
        65         0.0115      0.0397     -0.0045      0.0156
        66        -0.0034     -0.0014     -0.0012     -0.0020
        67         0.0381     -0.0008      0.0012      0.0128
        68        -0.4475     -0.0170     -0.0019     -0.1555
        69         0.3338      0.0080      0.0034      0.1151
        70         0.0081      0.0006      0.0000      0.0029
        71        -0.0400      0.0060     -0.0026     -0.0122
        72        -0.0444      0.0059     -0.0005     -0.0130
        73         0.0000     -0.0022     -0.0229     -0.0083
        74         0.0008      0.0194      0.0005      0.0069
        75         0.0000     -0.0017      0.0020      0.0001
  1/2[<0|del|b>*<b|r|0> + (<0|r|b>*<b|del|0>)*] (Au)
       state          X           Y           Z        Dip. S.   Osc.(frdel)
         1        -0.2805      0.0000      0.0000      0.2805      0.1870
         2         0.0000     -0.0452     -0.0001      0.0453      0.0302
         3        -0.0013      0.0000      0.0000      0.0013      0.0008
         4         0.0000     -0.1290     -0.0005      0.1295      0.0863
         5         0.0000      0.0000      0.0000      0.0000      0.0000
         6         0.0000     -0.0300     -0.0001      0.0302      0.0201
         7        -0.0001      0.0000      0.0000      0.0001      0.0001
         8        -0.4689      0.0000      0.0000      0.4689      0.3126
         9         0.0000     -0.1705      0.0000      0.1704      0.1136
        10         0.0000     -0.3246     -0.0010      0.3256      0.2171
        11        -0.0169      0.0000      0.0000      0.0169      0.0112
        12         0.0000     -0.1316     -0.0006      0.1322      0.0882
        13        -0.0002      0.0000      0.0000      0.0002      0.0001
        14         0.0000     -0.3776     -0.0001      0.3777      0.2518
        15        -0.0073      0.0000      0.0000      0.0073      0.0049
        16        -0.0331      0.0000      0.0000      0.0331      0.0221
        17         0.0000     -0.0215     -0.0019      0.0233      0.0156
        18        -0.0090      0.0000      0.0000      0.0090      0.0060
        19         0.0000     -0.0067     -0.0017      0.0084      0.0056
        20         0.0000     -0.3629     -0.0001      0.3630      0.2420
        21         0.0000     -0.0062     -0.0001      0.0063      0.0042
        22        -0.0384      0.0000      0.0000      0.0384      0.0256
        23        -0.0030      0.0000      0.0000      0.0030      0.0020
        24         0.0000     -0.0013      0.0000      0.0013      0.0009
        25        -0.0001      0.0000      0.0000      0.0001      0.0000
        26         0.0000     -0.0080     -0.0006      0.0086      0.0057
        27         0.0000      0.0000      0.0000      0.0000      0.0000
        28         0.0000      0.0000      0.0000      0.0000      0.0000
        29        -0.0049      0.0000      0.0000      0.0049      0.0032
        30        -0.0001      0.0000      0.0000      0.0001      0.0001
        31         0.0000     -0.0063     -0.0001      0.0063      0.0042
        32         0.0000     -0.0001      0.0000      0.0001      0.0001
        33        -0.0057      0.0000      0.0000      0.0057      0.0038
        34        -0.0928      0.0000      0.0000      0.0928      0.0619
        35         0.0000     -0.0023     -0.0001      0.0024      0.0016
        36         0.0000     -0.0028     -0.0001      0.0028      0.0019
        37        -0.0014      0.0000      0.0000      0.0014      0.0009
        38         0.0000     -0.0116     -0.0003      0.0119      0.0079
        39        -0.0134      0.0000      0.0000      0.0134      0.0089
        40         0.0000     -0.0693     -0.0001      0.0694      0.0462
        41         0.0000      0.0000      0.0000      0.0000      0.0000
        42        -0.0667      0.0000      0.0000      0.0667      0.0445
        43        -0.0041      0.0000      0.0000      0.0041      0.0027
        44         0.0000     -0.2309      0.0000      0.2309      0.1539
        45         0.0000     -0.2372     -0.0001      0.2373      0.1582
        46        -0.0033      0.0000      0.0000      0.0033      0.0022
        47         0.0000      0.0000      0.0000      0.0000      0.0000
        48         0.0000     -0.1267     -0.0010      0.1277      0.0851
        49         0.0000     -0.0006      0.0000      0.0006      0.0004
        50        -0.0055      0.0000      0.0000      0.0055      0.0037
        51         0.0000     -0.0313     -0.0001      0.0314      0.0209
        52        -0.0021      0.0000      0.0000      0.0021      0.0014
        53        -0.0025      0.0000      0.0000      0.0025      0.0017
        54         0.0000     -0.0379     -0.0001      0.0380      0.0253
        55        -0.1398      0.0000      0.0000      0.1398      0.0932
        56        -0.0126      0.0000      0.0000      0.0126      0.0084
        57         0.0000     -0.0009     -0.0007      0.0016      0.0011
[...]
 Alpha virt. eigenvalues --    0.53837   0.54199   0.54412   0.54453   0.54497
 Alpha virt. eigenvalues --    0.54868   0.55082   0.55272   0.55513   0.55830
 Alpha virt. eigenvalues --    0.56014   0.56442   0.56987   0.57158   0.57368
 Alpha virt. eigenvalues --    0.57521   0.57906   0.58162   0.58250   0.58312
 Alpha virt. eigenvalues --    0.58575   0.58793   0.59054   0.59291   0.59380
 Alpha virt. eigenvalues --    0.60237   0.60323   0.60591   0.60616   0.60929
 Alpha virt. eigenvalues --    0.61064   0.61451   0.61477   0.61868   0.61992
 Alpha virt. eigenvalues --    0.62496   0.63292   0.63388   0.63924   0.63967
 Alpha virt. eigenvalues --    0.64375   0.64602   0.64916   0.65234   0.65870
 Alpha virt. eigenvalues --    0.66119   0.66398   0.66616   0.66728   0.67130
 Alpha virt. eigenvalues --    0.67706   0.68006   0.68068   0.68623   0.68718
 Alpha virt. eigenvalues --    0.69133   0.69438   0.70351   0.70508   0.70954
 Alpha virt. eigenvalues --    0.71930   0.72674   0.72750   0.72769   0.73670
 Alpha virt. eigenvalues --    0.74440   0.74452   0.74840   0.75146   0.75779
 Alpha virt. eigenvalues --    0.76090   0.76629   0.76728   0.76857   0.77320
 Alpha virt. eigenvalues --    0.77421   0.77591   0.77944   0.78287   0.78456
 Alpha virt. eigenvalues --    0.78578   0.79035   0.79376   0.79498   0.79609
 Alpha virt. eigenvalues --    0.80110   0.80283   0.80600   0.80876   0.81593
 Alpha virt. eigenvalues --    0.82135   0.82402   0.82544   0.83193   0.83751
 Alpha virt. eigenvalues --    0.83754   0.84363   0.85121   0.85348   0.85472
 Alpha virt. eigenvalues --    0.85638   0.85923   0.86132   0.86453   0.86649
 Alpha virt. eigenvalues --    0.87051   0.87121   0.87705   0.88601   0.88898
 Alpha virt. eigenvalues --    0.89094   0.89137   0.89900   0.89947   0.90202
 Alpha virt. eigenvalues --    0.90333   0.91019   0.91373   0.91399   0.91462
 Alpha virt. eigenvalues --    0.92007   0.92026   0.92410   0.92990   0.93011
 Alpha virt. eigenvalues --    0.93453   0.93542   0.94012   0.94121   0.95093
 Alpha virt. eigenvalues --    0.95130   0.95588   0.95923   0.96010   0.96279
 Alpha virt. eigenvalues --    0.96520   0.96833   0.96925   0.97058   0.97184
 Alpha virt. eigenvalues --    0.97580   0.98103   0.98239   0.98847   0.99264
 Alpha virt. eigenvalues --    0.99675   0.99681   0.99927   1.00217   1.00503
 Alpha virt. eigenvalues --    1.00753   1.01081   1.01570   1.01578   1.01749
 Alpha virt. eigenvalues --    1.01896   1.02403   1.02521   1.02635   1.03205
 Alpha virt. eigenvalues --    1.03477   1.03608   1.03955   1.04168   1.04704
 Alpha virt. eigenvalues --    1.05008   1.05893   1.05970   1.06039   1.06713
 Alpha virt. eigenvalues --    1.06963   1.07728   1.08158   1.08388   1.09487
 Alpha virt. eigenvalues --    1.09962   1.10884   1.11671   1.11872   1.12267
 Alpha virt. eigenvalues --    1.12603   1.12932   1.13283   1.13597   1.14470
 Alpha virt. eigenvalues --    1.14763   1.16002   1.16564   1.17096   1.17162
 Alpha virt. eigenvalues --    1.17546   1.17563   1.17991   1.19298   1.19568
 Alpha virt. eigenvalues --    1.19677   1.20358   1.20678   1.21185   1.21191
 Alpha virt. eigenvalues --    1.21337   1.21880   1.21997   1.22019   1.22307
 Alpha virt. eigenvalues --    1.22510   1.22735   1.23001   1.23019   1.23102
 Alpha virt. eigenvalues --    1.23480   1.24311   1.24709   1.25046   1.25580
 Alpha virt. eigenvalues --    1.25763   1.25856   1.26531   1.26542   1.27857
 Alpha virt. eigenvalues --    1.28315   1.28566   1.28615   1.29043   1.29283
 Alpha virt. eigenvalues --    1.29299   1.29871   1.30343   1.30784   1.30972
 Alpha virt. eigenvalues --    1.31336   1.31361   1.31648   1.32150   1.32393
 Alpha virt. eigenvalues --    1.32754   1.33482   1.33941   1.34144   1.34392
 Alpha virt. eigenvalues --    1.34473   1.34573   1.34601   1.35561   1.35633
 Alpha virt. eigenvalues --    1.35817   1.35926   1.36021   1.36532   1.36631
 Alpha virt. eigenvalues --    1.37176   1.37501   1.37616   1.37788   1.38105
 Alpha virt. eigenvalues --    1.38498   1.38511   1.38797   1.39225   1.39237
 Alpha virt. eigenvalues --    1.39762   1.39976   1.40352   1.40979   1.41356
 Alpha virt. eigenvalues --    1.42003   1.42821   1.43129   1.43337   1.43541
 Alpha virt. eigenvalues --    1.43751   1.43855   1.44557   1.45038   1.45126
 Alpha virt. eigenvalues --    1.45696   1.45702   1.45813   1.46399   1.46456
 Alpha virt. eigenvalues --    1.47047   1.47541   1.48725   1.48786   1.49268
 Alpha virt. eigenvalues --    1.49619   1.50709   1.50828   1.51305   1.51959
 Alpha virt. eigenvalues --    1.51996   1.52384   1.52397   1.53012   1.53517
 Alpha virt. eigenvalues --    1.53543   1.54846   1.55107   1.56193   1.56744
 Alpha virt. eigenvalues --    1.57803   1.58268   1.58561   1.59897   1.60515
 Alpha virt. eigenvalues --    1.61546   1.63149   1.63367   1.63405   1.64321
 Alpha virt. eigenvalues --    1.65170   1.65459   1.65877   1.65935   1.66281
 Alpha virt. eigenvalues --    1.66357   1.66422   1.66822   1.66945   1.67046
 Alpha virt. eigenvalues --    1.67072   1.67285   1.67616   1.67831   1.68080
 Alpha virt. eigenvalues --    1.68109   1.68618   1.68802   1.69030   1.69220
 Alpha virt. eigenvalues --    1.69271   1.69869   1.69952   1.70133   1.70529
 Alpha virt. eigenvalues --    1.70576   1.71454   1.71609   1.72009   1.72417
 Alpha virt. eigenvalues --    1.73166   1.73172   1.73673   1.73674   1.73849
 Alpha virt. eigenvalues --    1.73984   1.74071   1.74096   1.74344   1.74787
 Alpha virt. eigenvalues --    1.75479   1.75690   1.75811   1.75916   1.76493
 Alpha virt. eigenvalues --    1.76583   1.76785   1.77217   1.77389   1.77407
 Alpha virt. eigenvalues --    1.77582   1.77896   1.78285   1.78537   1.78720
 Alpha virt. eigenvalues --    1.78994   1.78997   1.79225   1.79500   1.79661
 Alpha virt. eigenvalues --    1.79722   1.80001   1.80362   1.81654   1.82013
 Alpha virt. eigenvalues --    1.82024   1.82638   1.83143   1.83160   1.83341
 Alpha virt. eigenvalues --    1.83548   1.83702   1.83726   1.83931   1.84169
 Alpha virt. eigenvalues --    1.84198   1.84236   1.84416   1.84617   1.84676
 Alpha virt. eigenvalues --    1.84753   1.85342   1.85357   1.85899   1.85987
 Alpha virt. eigenvalues --    1.86134   1.86300   1.86733   1.87022   1.87320
 Alpha virt. eigenvalues --    1.87479   1.87706   1.87873   1.88169   1.88185
 Alpha virt. eigenvalues --    1.88606   1.88711   1.88970   1.89067   1.89173
 Alpha virt. eigenvalues --    1.89287   1.89657   1.89708   1.90151   1.90485
 Alpha virt. eigenvalues --    1.90546   1.90734   1.91191   1.91286   1.92605
 Alpha virt. eigenvalues --    1.93075   1.93109   1.93304   1.93377   1.93562
 Alpha virt. eigenvalues --    1.93634   1.93848   1.93967   1.94191   1.94620
 Alpha virt. eigenvalues --    1.94740   1.95137   1.95335   1.95425   1.96033
 Alpha virt. eigenvalues --    1.96225   1.96907   1.97634   1.97880   1.98182
 Alpha virt. eigenvalues --    1.98554   1.98598   1.99110   1.99571   1.99815
 Alpha virt. eigenvalues --    1.99990   2.00300   2.00438   2.00709   2.01221
 Alpha virt. eigenvalues --    2.01290   2.01567   2.02869   2.02948   2.03462
 Alpha virt. eigenvalues --    2.03882   2.04451   2.04939   2.05064   2.05570
 Alpha virt. eigenvalues --    2.05846   2.06528   2.06873   2.06938   2.07322
 Alpha virt. eigenvalues --    2.07502   2.07686   2.07836   2.08657   2.08752
 Alpha virt. eigenvalues --    2.09701   2.10027   2.10764   2.11009   2.11971
 Alpha virt. eigenvalues --    2.13191   2.13530   2.13975   2.15039   2.15172
 Alpha virt. eigenvalues --    2.15517   2.15824   2.16066   2.16198   2.16689
 Alpha virt. eigenvalues --    2.17240   2.17467   2.17943   2.18055   2.18722
 Alpha virt. eigenvalues --    2.19818   2.20552   2.20720   2.21016   2.21278
 Alpha virt. eigenvalues --    2.21341   2.21557   2.22019   2.22357   2.23559
 Alpha virt. eigenvalues --    2.23816   2.25514   2.26102   2.26259   2.26881
 Alpha virt. eigenvalues --    2.26888   2.27036   2.27075   2.27659   2.27918
 Alpha virt. eigenvalues --    2.27941   2.28409   2.28492   2.28797   2.28899
 Alpha virt. eigenvalues --    2.29184   2.29217   2.29385   2.29581   2.29589
 Alpha virt. eigenvalues --    2.30170   2.30602   2.30832   2.31062   2.32414
 Alpha virt. eigenvalues --    2.32599   2.33024   2.33060   2.33416   2.33628
 Alpha virt. eigenvalues --    2.34040   2.34965   2.35368   2.35635   2.36105
 Alpha virt. eigenvalues --    2.36167   2.36520   2.37282   2.37594   2.38314
 Alpha virt. eigenvalues --    2.38352   2.38717   2.38748   2.38962   2.39191
 Alpha virt. eigenvalues --    2.39680   2.40242   2.40573   2.40921   2.41304
 Alpha virt. eigenvalues --    2.41536   2.42191   2.42686   2.42933   2.43657
 Alpha virt. eigenvalues --    2.43685   2.44446   2.44642   2.45185   2.45415
 Alpha virt. eigenvalues --    2.45743   2.46072   2.46319   2.46378   2.46961
 Alpha virt. eigenvalues --    2.47228   2.47708   2.48409   2.48707   2.48965
 Alpha virt. eigenvalues --    2.51118   2.51433   2.51733   2.51962   2.54057
 Alpha virt. eigenvalues --    2.54291   2.54375   2.54708   2.55060   2.55175
 Alpha virt. eigenvalues --    2.55925   2.56461   2.56805   2.57038   2.57372
 Alpha virt. eigenvalues --    2.58681   2.59519   2.59663   2.59742   2.59921
 Alpha virt. eigenvalues --    2.60022   2.60234   2.60241   2.60622   2.61195
 Alpha virt. eigenvalues --    2.61257   2.61469   2.61709   2.62250   2.62403
 Alpha virt. eigenvalues --    2.62653   2.63430   2.63457   2.64219   2.64289
 Alpha virt. eigenvalues --    2.65103   2.65166   2.66144   2.66445   2.66607
 Alpha virt. eigenvalues --    2.66806   2.66978   2.68141   2.68347   2.68613
 Alpha virt. eigenvalues --    2.69176   2.69203   2.70613   2.71455   2.71715
 Alpha virt. eigenvalues --    2.72206   2.73062   2.74242   2.75287   2.75507
 Alpha virt. eigenvalues --    2.76072   2.77053   2.77573   2.77593   2.78147
 Alpha virt. eigenvalues --    2.78676   2.79027   2.79217   2.80459   2.80867
 Alpha virt. eigenvalues --    2.81187   2.82066   2.82302   2.83083   2.83239
 Alpha virt. eigenvalues --    2.84617   2.86144   2.86312   2.86915   2.90020
 Alpha virt. eigenvalues --    2.91296   2.91694   2.93573   2.94498   2.94683
 Alpha virt. eigenvalues --    2.95544   2.96286   2.97837   2.98346   2.99243
 Alpha virt. eigenvalues --    3.00818   3.02060   3.02722   3.02973   3.04741
 Alpha virt. eigenvalues --    3.04769   3.05492   3.05675   3.05951   3.08782
 Alpha virt. eigenvalues --    3.09559   3.11781   3.12034   3.12044   3.12471
 Alpha virt. eigenvalues --    3.12568   3.13360   3.13592   3.15045   3.16232
 Alpha virt. eigenvalues --    3.16877   3.19777   3.20583   3.21065   3.21793
 Alpha virt. eigenvalues --    3.22494   3.22679   3.23803   3.25671   3.26177
 Alpha virt. eigenvalues --    3.27027   3.27597   3.28461   3.29022   3.29514
 Alpha virt. eigenvalues --    3.29705   3.29761   3.30833   3.32009   3.32029
 Alpha virt. eigenvalues --    3.34400   3.34465   3.36881   3.37317   3.39968
 Alpha virt. eigenvalues --    3.40417   3.40454   3.41609   3.42143   3.42515
 Alpha virt. eigenvalues --    3.42890   3.43657   3.46543   3.46940   3.47040
 Alpha virt. eigenvalues --    3.50377   3.50823   3.51317   3.52257   3.55104
 Alpha virt. eigenvalues --    3.71169   3.72262   3.73291   3.73511   3.74013
 Alpha virt. eigenvalues --    3.86267   3.86715   3.86888   3.87885  21.04792
          Condensed to atoms (all electrons):
 Mulliken charges:
               1
     1  C   -0.188195
     2  C    0.266380
     3  C   -0.039387
     4  C   -0.011459
     5  C    0.050988
     6  C    0.994636
     7  C   -0.188398
     8  C    0.266313
     9  C   -0.121368
    10  C    0.050772
    11  C    0.105693
    12  C   -0.011410
    13  H    0.121289
    14  H    0.114361
    15  H    0.117046
    16  N   -0.002935
    17  N   -0.002997
    18  N   -0.036218
    19  N   -0.036265
    20  C   -0.121316
    21  H    0.114360
    22  C    0.105649
    23  H    0.121290
    24  C    0.994682
    25  C   -0.039460
    26  H    0.117047
    27  C   -0.443965
    28  C   -0.044657
    29  C   -0.044619
    30  C   -0.040958
    31  C   -0.721018
    32  C    0.219336
    33  C    0.172236
    34  C    0.259215
    35  C    0.308581
    36  C    0.513828
    37  C   -0.582810
    38  C    0.043816
    39  C    0.028287
    40  C    0.411403
    41  C    0.375354
    42  C    0.446013
    43  C   -0.720916
    44  C    0.219201
    45  C    0.172132
    46  C    0.259235
    47  C    0.308730
    48  C    0.513724
    49  C   -0.671253
    50  C   -0.318081
    51  H    0.164975
    52  C   -0.671699
    53  C   -0.318207
    54  H    0.164983
    55  F   -0.277792
    56  F   -0.351084
    57  F   -0.351947
    58  F   -0.351466
    59  F   -0.275762
    60  F   -0.278237
    61  F   -0.355324
    62  F   -0.350850
    63  F   -0.354221
    64  F   -0.278659
    65  F   -0.275752
    66  F   -0.351470
    67  F   -0.351947
    68  F   -0.351082
    69  F   -0.277777
    70  H    0.120504
    71  H    0.120503
    72  O   -0.561289
    73  C    0.329103
    74  C    0.328448
    75  C   -0.116869
    76  H    0.142331
    77  S    0.020370
    78  S    0.020332
    79  C   -0.116765
    80  H    0.142331
    81  Pt   0.660408
 Sum of Mulliken charges =  -1.00000
 Mulliken charges with hydrogens summed into heavy atoms:
               1
     1  C   -0.188195
     2  C    0.266380
     3  C    0.077659
     4  C   -0.011459
     5  C    0.050988
     6  C    0.994636
     7  C   -0.188398
     8  C    0.266313
     9  C   -0.007007
    10  C    0.050772
    11  C    0.226982
    12  C   -0.011410
    16  N   -0.002935
    17  N   -0.002997
    18  N   -0.036218
    19  N   -0.036265
    20  C   -0.006956
    22  C    0.226938
    24  C    0.994682
    25  C    0.077586
    27  C   -0.443965
    28  C   -0.044657
    29  C   -0.044619
    30  C   -0.040958
    31  C   -0.721018
    32  C    0.219336
    33  C    0.172236
    34  C    0.259215
    35  C    0.308581
    36  C    0.513828
    37  C   -0.582810
    38  C    0.043816
    39  C    0.028287
    40  C    0.411403
    41  C    0.375354
    42  C    0.446013
    43  C   -0.720916
    44  C    0.219201
    45  C    0.172132
    46  C    0.259235
    47  C    0.308730
    48  C    0.513724
    49  C   -0.671253
    50  C   -0.197577
    52  C   -0.671699
    53  C   -0.197702
    55  F   -0.277792
    56  F   -0.351084
    57  F   -0.351947
    58  F   -0.351466
    59  F   -0.275762
    60  F   -0.278237
    61  F   -0.355324
    62  F   -0.350850
    63  F   -0.354221
    64  F   -0.278659
    65  F   -0.275752
    66  F   -0.351470
    67  F   -0.351947
    68  F   -0.351082
    69  F   -0.277777
    72  O   -0.561289
    73  C    0.494086
    74  C    0.493424
    75  C    0.025463
    77  S    0.020370
    78  S    0.020332
    79  C    0.025566
    81  Pt   0.660408
 Electronic spatial extent (au):  <R**2>=          66927.5127
 Charge=             -1.0000 electrons
 Dipole moment (field-independent basis, Debye):
    X=              0.0003    Y=              3.9560    Z=              0.8459  Tot=              4.0454
 Quadrupole moment (field-independent basis, Debye-Ang):
   XX=           -500.5514   YY=           -486.6905   ZZ=           -452.5856
   XY=              0.0020   XZ=             -0.0020   YZ=             -1.6600
 Traceless Quadrupole moment (field-independent basis, Debye-Ang):
   XX=            -20.6089   YY=             -6.7480   ZZ=             27.3569
   XY=              0.0020   XZ=             -0.0020   YZ=             -1.6600
 Octapole moment (field-independent basis, Debye-Ang**2):
  XXX=              0.0437  YYY=            -43.7015  ZZZ=            -15.8858  XYY=             -0.0388
  XXY=            165.6378  XXZ=            -16.7063  XZZ=              0.0080  YZZ=             26.9840
  YYZ=             23.5959  XYZ=             -0.0670
 Hexadecapole moment (field-independent basis, Debye-Ang**3):
 XXXX=         -49413.6800 YYYY=         -42082.8948 ZZZZ=          -4067.8922 XXXY=              0.6864
 XXXZ=             -0.0739 YYYX=             -0.4175 YYYZ=            127.5952 ZZZX=             -0.0394
 ZZZY=            -35.5873 XXYY=         -13284.0736 XXZZ=          -8615.7239 YYZZ=          -7612.1503
 XXYZ=           -179.2878 YYXZ=              0.0138 ZZXY=             -0.1194
 N-N= 1.158779014170D+04 E-N=-3.369075567439D+04  KE= 4.362561191707D+03
 Unable to Open any file for archive entry.
 1\1\GINC-CCNN747\SP\RB3LYP TD-FC\GenECP\C46H12F15N4O1Pt1S2(1-)\CPI\03-
 Sep-2022\0\\# td=(nstates=75) b3lyp/genecp geom=connectivity scf=maxcy
 c=1000\\title\\-1,1\C,0,-1.265703,-2.761702,-0.540392\C,0,1.241863,2.8
 29932,-0.161754\C,0,3.471511,2.535518,0.074994\C,0,2.796914,1.260292,0
 .042764\C,0,2.781939,-1.232989,-0.021882\C,0,2.519269,-3.462269,-0.378
 643\C,0,1.265227,-2.761957,-0.54013\C,0,-1.241338,2.830147,-0.161487\C
 ,0,-2.519833,3.499849,-0.067474\C,0,-2.782132,-1.232511,-0.02197\C,0,-
 3.445719,-2.484066,-0.041679\C,0,-2.796643,1.260764,0.043094\H,0,-4.50
 0545,-2.639185,0.132811\H,0,-2.666009,4.57058,-0.088793\H,0,4.537984,2
 .67441,0.183552\N,0,1.439592,-1.429441,-0.288819\N,0,-1.439811,-1.4291
 92,-0.288844\N,0,1.437458,1.474265,-0.110428\N,0,-1.437172,1.474508,-0
 .110293\C,0,2.520501,3.499411,-0.068107\H,0,2.666871,4.570111,-0.08961
 4\C,0,3.445248,-2.484696,-0.041234\H,0,4.500015,-2.640009,0.133438\C,0
 ,-2.519918,-3.461766,-0.379214\C,0,-3.470995,2.536114,0.075659\H,0,-4.
 537419,2.675192,0.184457\C,0,-0.000261,-3.365091,-0.937746\C,0,-3.4128
 52,0.020686,0.130758\C,0,3.412905,0.020113,0.130574\C,0,0.000313,3.477
 462,-0.226373\C,0,4.89313,0.001838,0.358151\C,0,5.804308,0.002772,-0.7
 03844\C,0,5.435862,-0.029122,1.647389\C,0,7.183406,-0.020991,-0.502248
 \C,0,6.810786,-0.054367,1.876674\C,0,7.687644,-0.051212,0.795283\C,0,0
 .000433,4.971131,-0.301442\C,0,0.000409,5.644989,-1.529062\C,0,0.00058
 8,5.773872,0.846096\C,0,0.000521,7.036338,-1.619085\C,0,0.000725,7.166
 648,0.78523\C,0,0.000689,7.799817,-0.454846\C,0,-4.893063,0.00263,0.35
 8454\C,0,-5.804337,0.004707,-0.703455\C,0,-5.435685,-0.029286,1.647716
 \C,0,-7.183425,-0.018864,-0.501754\C,0,-6.810594,-0.054368,1.877103\C,
 0,-7.687551,-0.050058,0.795795\C,0,-2.853381,-4.885812,-0.429962\C,0,-
 3.097306,-7.15744,-0.978684\H,0,-1.647056,-5.784152,-1.965412\C,0,2.85
 2393,-4.886412,-0.428945\C,0,3.095806,-7.158279,-0.976913\H,0,1.646032
 ,-5.784922,-1.96426\F,0,4.626974,-0.032026,2.719148\F,0,7.297546,-0.08
 027,3.129747\F,0,9.014185,-0.072729,1.002696\F,0,8.030309,-0.013587,-1
 .546596\F,0,5.361945,0.034235,-1.971268\F,0,0.000268,4.950418,-2.67836
 8\F,0,0.00047,7.647976,-2.816839\F,0,0.000816,9.140854,-0.527382\F,0,0
 .000897,7.904329,1.909986\F,0,0.000614,5.207498,2.064185\F,0,-5.362084
 ,0.037089,-1.970896\F,0,-8.030419,-0.010364,-1.546021\F,0,-9.014078,-0
 .071401,1.003314\F,0,-7.297249,-0.081196,3.130197\F,0,-4.626698,-0.033
 285,2.719393\H,0,2.883524,-8.075234,-1.516879\H,0,-2.885178,-8.074284,
 -1.5189\O,0,-0.000294,-4.426954,-1.593729\C,0,2.424318,-5.924949,-1.22
 9307\C,0,-2.425485,-5.924198,-1.230613\C,0,-4.037064,-7.069844,0.01542
 \H,0,-4.676743,-7.848692,0.408794\S,0,-4.108867,-5.466662,0.669138\S,0
 ,4.107573,-5.467245,0.670518\C,0,4.035501,-7.070595,0.01724\H,0,4.6749
 73,-7.849467,0.410902\Pt,0,0.000014,0.024767,-0.218444\\Version=ES64L-
 G16RevC.01\State=1-A\HF=-4467.6624433\RMSD=4.550e-09\PG=C01 [X(C46H12F
 15N4O1Pt1S2)]\\@
 The archive entry for this job was punched.


 Discoveries are often made by not following instructions,
 by going off the main road, by trying the untried.
 -- Frank Tyger
 Job cpu time:       6 days 14 hours 56 minutes 14.1 seconds.
 Elapsed time:       0 days  9 hours 56 minutes  4.7 seconds.
 File lengths (MBytes):  RWF=  55470 Int=      0 D2E=      0 Chk=   7076 Scr=      1
 Normal termination of Gaussian 16 at Sat Sep  3 22:51:30 2022.
