 Entering Gaussian System, Link 0=/local/apl/lx/g16c01/g16/._.g16
 Initial command:
 /local/apl/lx/g16c01/g16/l1.exe "/work/users/cpi/4904766.cccms1/Gau-94753.inp" -scrdir="/work/users/cpi/4904766.cccms1/"
 Default CPUs for threads: 0,1,2,3,4,5,6,7,8,9,10,11,12,13,14,15,16,17
 Default is to use a total of  18 processors:
                               18 via shared-memory
                                1 via Linda
 Entering Link 1 = /local/apl/lx/g16c01/g16/l1.exe PID=     94754.
  
 Copyright (c) 1988-2019, Gaussian, Inc.  All Rights Reserved.
  
 This is part of the Gaussian(R) 16 program.  It is based on
 the Gaussian(R) 09 system (copyright 2009, Gaussian, Inc.),
 the Gaussian(R) 03 system (copyright 2003, Gaussian, Inc.),
 the Gaussian(R) 98 system (copyright 1998, Gaussian, Inc.),
 the Gaussian(R) 94 system (copyright 1995, Gaussian, Inc.),
 the Gaussian 92(TM) system (copyright 1992, Gaussian, Inc.),
 the Gaussian 90(TM) system (copyright 1990, Gaussian, Inc.),
 the Gaussian 88(TM) system (copyright 1988, Gaussian, Inc.),
 the Gaussian 86(TM) system (copyright 1986, Carnegie Mellon
 University), and the Gaussian 82(TM) system (copyright 1983,
 Carnegie Mellon University). Gaussian is a federally registered
 trademark of Gaussian, Inc.
  
 This software contains proprietary and confidential information,
 including trade secrets, belonging to Gaussian, Inc.
  
 This software is provided under written license and may be
 used, copied, transmitted, or stored only in accord with that
 written license.
  
 The following legend is applicable only to US Government
 contracts under FAR:
  
                    RESTRICTED RIGHTS LEGEND
  
 Use, reproduction and disclosure by the US Government is
 subject to restrictions as set forth in subparagraphs (a)
 and (c) of the Commercial Computer Software - Restricted
 Rights clause in FAR 52.227-19.
  
 Gaussian, Inc.
 340 Quinnipiac St., Bldg. 40, Wallingford CT 06492
  
  
 ---------------------------------------------------------------
 Warning -- This program may not be used in any manner that
 competes with the business of Gaussian, Inc. or will provide
 assistance to any competitor of Gaussian, Inc.  The licensee
 of this program is prohibited from giving any competitor of
 Gaussian, Inc. access to this program.  By using this program,
 the user acknowledges that Gaussian, Inc. is engaged in the
 business of creating and licensing software in the field of
 computational chemistry and represents and warrants to the
 licensee that it is not a competitor of Gaussian, Inc. and that
 it will not use this program in any manner prohibited above.
 ---------------------------------------------------------------
  

 Cite this work as:
 Gaussian 16, Revision C.01,
 M. J. Frisch, G. W. Trucks, H. B. Schlegel, G. E. Scuseria, 
 M. A. Robb, J. R. Cheeseman, G. Scalmani, V. Barone, 
 G. A. Petersson, H. Nakatsuji, X. Li, M. Caricato, A. V. Marenich, 
 J. Bloino, B. G. Janesko, R. Gomperts, B. Mennucci, H. P. Hratchian, 
 J. V. Ortiz, A. F. Izmaylov, J. L. Sonnenberg, D. Williams-Young, 
 F. Ding, F. Lipparini, F. Egidi, J. Goings, B. Peng, A. Petrone, 
 T. Henderson, D. Ranasinghe, V. G. Zakrzewski, J. Gao, N. Rega, 
 G. Zheng, W. Liang, M. Hada, M. Ehara, K. Toyota, R. Fukuda, 
 J. Hasegawa, M. Ishida, T. Nakajima, Y. Honda, O. Kitao, H. Nakai, 
 T. Vreven, K. Throssell, J. A. Montgomery, Jr., J. E. Peralta, 
 F. Ogliaro, M. J. Bearpark, J. J. Heyd, E. N. Brothers, K. N. Kudin, 
 V. N. Staroverov, T. A. Keith, R. Kobayashi, J. Normand, 
 K. Raghavachari, A. P. Rendell, J. C. Burant, S. S. Iyengar, 
 J. Tomasi, M. Cossi, J. M. Millam, M. Klene, C. Adamo, R. Cammi, 
 J. W. Ochterski, R. L. Martin, K. Morokuma, O. Farkas, 
 J. B. Foresman, and D. J. Fox, Gaussian, Inc., Wallingford CT, 2019.
 
 ******************************************
 Gaussian 16:  ES64L-G16RevC.01  3-Jul-2019
                26-Oct-2021 
 ******************************************
 %mem=100GB
 %nprocshare=16
 Will use up to   16 processors via shared memory.
 %chk=Ni_3C6F5_Por_dithiophene_OH_3.chk
 ----------------------------------------------------
 # opt b3lyp/genecp geom=connectivity scf=maxcyc=1000
 ----------------------------------------------------
 1/18=20,19=15,26=3,38=1,57=2/1,3;
 2/9=110,12=2,17=6,18=5,40=1/2;
 3/5=7,11=2,16=1,17=8,25=1,30=1,71=1,74=-5/1,2,3;
 4//1;
 5/5=2,7=1000,38=5/2;
 6/7=2,8=2,9=2,10=2,28=1/1;
 7//1,2,3,16;
 1/18=20,19=15,26=3/3(2);
 2/9=110/2;
 99//99;
 2/9=110/2;
 3/5=7,6=1,11=2,16=1,17=8,25=1,30=1,71=1,74=-5,82=7/1,2,3;
 4/5=5,16=3,69=1/1;
 5/5=2,7=1000,38=5/2;
 7//1,2,3,16;
 1/18=20,19=15,26=3/3(-5);
 2/9=110/2;
 6/7=2,8=2,9=2,10=2,19=2,28=1/1;
 99/9=1/99;
 -----
 title
 -----
 Symbolic Z-matrix:
 Charge =  0 Multiplicity = 1
 C                     1.16675  -0.73647  -3.82388 
 C                    -1.32803   2.64679   0.05908 
 C                    -3.48986   3.24845  -0.61199 
 C                    -2.76204   2.44938  -1.67897 
 C                    -2.61096   1.15831  -3.59033 
 C                    -2.36945  -0.62755  -4.87268 
 C                    -1.24997  -0.52617  -4.06292 
 C                     1.02246   2.55217   0.2644 
 C                     2.35992   2.98839   0.88979 
 C                     2.68127   0.70633  -3.08072 
 C                     3.29608  -0.07257  -4.05177 
 C                     2.69145   2.03633  -1.18275 
 H                     4.29144   0.02817  -4.42654 
 H                     2.4828    3.42638   1.85611 
 H                    -4.46117   3.68828  -0.69637 
 N                    -1.3329    0.55973  -3.29069 
 N                     1.28262   0.34058  -3.03593 
 N                    -1.41118   2.12329  -1.16561 
 N                     1.23538   1.96775  -0.94206 
 C                    -2.67093   3.29885   0.45125 
 H                    -2.89809   3.74114   1.39557 
 C                    -3.16206   0.48402  -4.66632 
 H                    -4.03508   0.75303  -5.22012 
 C                     2.37877  -1.03788  -4.41961 
 C                     3.33964   2.73417   0.00635 
 H                     4.37443   2.97532   0.1143 
 C                    -0.10213  -1.47352  -4.10041 
 C                     3.32814   1.5823   -2.26482 
 C                    -3.24819   2.12726  -2.8802 
 C                    -0.21198   2.71684   0.86151 
 C                    -4.50448   2.77895  -3.45353 
 C                    -5.73442   2.36883  -2.95517 
 C                    -4.43042   3.75425  -4.46066 
 C                    -6.91112   2.88159  -3.50165 
 C                    -5.60903   4.33978  -4.94197 
 C                    -6.85108   3.88299  -4.48019 
 C                    -0.33507   3.03694   2.3638 
 C                    -0.75082   2.04726   3.27846 
 C                    -0.03108   4.31935   2.81798 
 C                    -0.81439   2.34744   4.64941 
 C                    -0.18543   4.64002   4.1722 
 C                    -0.55436   3.6505    5.0917 
 C                     4.76485   1.97807  -2.57642 
 C                     5.78689   1.3626   -1.86501 
 C                     5.05029   2.93182  -3.56214 
 C                     7.11623   1.65224  -2.17298 
 C                     6.38034   3.29472  -3.80379 
 C                     7.41533   2.63478  -3.1266 
 Ni                   -0.06339   1.23134  -2.10139 
 C                     2.66933  -2.19727  -5.36037 
 C                     3.48662  -3.54063  -7.18146 
 H                     4.32363  -1.46006  -6.53942 
 C                    -2.6748   -1.73244  -5.86906 
 C                    -3.40507  -2.94071  -7.81692 
 H                    -4.05666  -0.77868  -7.23143 
 F                    -3.2307    4.16117  -4.93412 
 F                    -5.54973   5.34679  -5.84083 
 F                    -7.99052   4.40628  -4.97685 
 F                    -8.10275   2.40182  -3.09225 
 F                    -5.78074   1.43843  -1.97982 
 F                    -1.04301   0.79897   2.85076 
 F                    -1.11631   1.38104   5.54449 
 F                    -0.65912   3.9536    6.40334 
 F                     0.01208   5.90795   4.58913 
 F                     0.36699   5.26212   1.93931 
 F                     5.48653   0.45101  -0.91645 
 F                     8.10843   0.97661  -1.55843 
 F                     8.70031   2.94477  -3.39179 
 F                     6.66521   4.28338  -4.6788 
 F                     4.04856   3.53192  -4.24386 
 H                    -3.94403  -3.09067  -8.72727 
 H                     4.11447  -3.77992  -8.01276 
 C                    -3.47468  -1.64125  -6.9685 
 C                     3.6086   -2.23647  -6.34563 
 C                     2.47302  -4.33935  -6.74373 
 H                     2.13926  -5.22751  -7.22818 
 S                     1.76611  -3.70649  -5.2645 
 S                    -1.98151  -3.34124  -5.70123 
 C                    -2.56233  -3.86446  -7.27482 
 H                    -2.28036  -4.78234  -7.73566 
 O                    -0.18704  -2.85332  -4.46626 
 H                    -0.30514  -3.38736  -3.6773 
 

 GradGradGradGradGradGradGradGradGradGradGradGradGradGradGradGradGradGrad
 Berny optimization.
 Initialization pass.
                           ----------------------------
                           !    Initial Parameters    !
                           ! (Angstroms and Degrees)  !
 --------------------------                            --------------------------
 ! Name  Definition              Value          Derivative Info.                !
 --------------------------------------------------------------------------------
 ! R1    R(1,17)                 1.3395         estimate D2E/DX2                !
 ! R2    R(1,24)                 1.3837         estimate D2E/DX2                !
 ! R3    R(1,27)                 1.4932         estimate D2E/DX2                !
 ! R4    R(2,18)                 1.3345         estimate D2E/DX2                !
 ! R5    R(2,20)                 1.5435         estimate D2E/DX2                !
 ! R6    R(2,30)                 1.3764         estimate D2E/DX2                !
 ! R7    R(3,4)                  1.5188         estimate D2E/DX2                !
 ! R8    R(3,15)                 1.0696         estimate D2E/DX2                !
 ! R9    R(3,20)                 1.343          estimate D2E/DX2                !
 ! R10   R(4,18)                 1.4814         estimate D2E/DX2                !
 ! R11   R(4,29)                 1.3353         estimate D2E/DX2                !
 ! R12   R(5,16)                 1.4427         estimate D2E/DX2                !
 ! R13   R(5,22)                 1.3842         estimate D2E/DX2                !
 ! R14   R(5,29)                 1.3599         estimate D2E/DX2                !
 ! R15   R(6,7)                  1.3854         estimate D2E/DX2                !
 ! R16   R(6,22)                 1.3807         estimate D2E/DX2                !
 ! R17   R(6,53)                 1.5188         estimate D2E/DX2                !
 ! R18   R(7,16)                 1.3351         estimate D2E/DX2                !
 ! R19   R(7,27)                 1.4888         estimate D2E/DX2                !
 ! R20   R(8,9)                  1.5395         estimate D2E/DX2                !
 ! R21   R(8,19)                 1.3574         estimate D2E/DX2                !
 ! R22   R(8,30)                 1.3811         estimate D2E/DX2                !
 ! R23   R(9,14)                 1.068          estimate D2E/DX2                !
 ! R24   R(9,25)                 1.3435         estimate D2E/DX2                !
 ! R25   R(10,11)                1.3884         estimate D2E/DX2                !
 ! R26   R(10,17)                1.4464         estimate D2E/DX2                !
 ! R27   R(10,28)                1.3607         estimate D2E/DX2                !
 ! R28   R(11,13)                1.0683         estimate D2E/DX2                !
 ! R29   R(11,24)                1.3815         estimate D2E/DX2                !
 ! R30   R(12,19)                1.4774         estimate D2E/DX2                !
 ! R31   R(12,25)                1.5235         estimate D2E/DX2                !
 ! R32   R(12,28)                1.3351         estimate D2E/DX2                !
 ! R33   R(16,49)                1.8647         estimate D2E/DX2                !
 ! R34   R(17,49)                1.8651         estimate D2E/DX2                !
 ! R35   R(18,49)                1.8676         estimate D2E/DX2                !
 ! R36   R(19,49)                1.8903         estimate D2E/DX2                !
 ! R37   R(20,21)                1.0672         estimate D2E/DX2                !
 ! R38   R(22,23)                1.0683         estimate D2E/DX2                !
 ! R39   R(24,50)                1.5211         estimate D2E/DX2                !
 ! R40   R(25,26)                1.068          estimate D2E/DX2                !
 ! R41   R(27,81)                1.43           estimate D2E/DX2                !
 ! R42   R(28,43)                1.5225         estimate D2E/DX2                !
 ! R43   R(29,31)                1.527          estimate D2E/DX2                !
 ! R44   R(30,37)                1.5409         estimate D2E/DX2                !
 ! R45   R(31,32)                1.389          estimate D2E/DX2                !
 ! R46   R(31,33)                1.4039         estimate D2E/DX2                !
 ! R47   R(32,34)                1.3951         estimate D2E/DX2                !
 ! R48   R(32,60)                1.3487         estimate D2E/DX2                !
 ! R49   R(33,35)                1.4013         estimate D2E/DX2                !
 ! R50   R(33,56)                1.3524         estimate D2E/DX2                !
 ! R51   R(34,36)                1.4014         estimate D2E/DX2                !
 ! R52   R(34,59)                1.3482         estimate D2E/DX2                !
 ! R53   R(35,36)                1.4016         estimate D2E/DX2                !
 ! R54   R(35,57)                1.3511         estimate D2E/DX2                !
 ! R55   R(36,58)                1.3486         estimate D2E/DX2                !
 ! R56   R(37,38)                1.4103         estimate D2E/DX2                !
 ! R57   R(37,39)                1.394          estimate D2E/DX2                !
 ! R58   R(38,40)                1.4049         estimate D2E/DX2                !
 ! R59   R(38,61)                1.3515         estimate D2E/DX2                !
 ! R60   R(39,41)                1.4002         estimate D2E/DX2                !
 ! R61   R(39,65)                1.3488         estimate D2E/DX2                !
 ! R62   R(40,42)                1.4004         estimate D2E/DX2                !
 ! R63   R(40,62)                1.3514         estimate D2E/DX2                !
 ! R64   R(41,42)                1.4003         estimate D2E/DX2                !
 ! R65   R(41,64)                1.3493         estimate D2E/DX2                !
 ! R66   R(42,63)                1.3503         estimate D2E/DX2                !
 ! R67   R(43,44)                1.3891         estimate D2E/DX2                !
 ! R68   R(43,45)                1.401          estimate D2E/DX2                !
 ! R69   R(44,46)                1.3949         estimate D2E/DX2                !
 ! R70   R(44,66)                1.3494         estimate D2E/DX2                !
 ! R71   R(45,47)                1.3997         estimate D2E/DX2                !
 ! R72   R(45,70)                1.3522         estimate D2E/DX2                !
 ! R73   R(46,48)                1.4015         estimate D2E/DX2                !
 ! R74   R(46,67)                1.3486         estimate D2E/DX2                !
 ! R75   R(47,48)                1.4019         estimate D2E/DX2                !
 ! R76   R(47,69)                1.3506         estimate D2E/DX2                !
 ! R77   R(48,68)                1.3482         estimate D2E/DX2                !
 ! R78   R(50,74)                1.3618         estimate D2E/DX2                !
 ! R79   R(50,77)                1.7615         estimate D2E/DX2                !
 ! R80   R(51,72)                1.0689         estimate D2E/DX2                !
 ! R81   R(51,74)                1.5538         estimate D2E/DX2                !
 ! R82   R(51,75)                1.3627         estimate D2E/DX2                !
 ! R83   R(52,74)                1.0731         estimate D2E/DX2                !
 ! R84   R(53,73)                1.3627         estimate D2E/DX2                !
 ! R85   R(53,78)                1.7598         estimate D2E/DX2                !
 ! R86   R(54,71)                1.0685         estimate D2E/DX2                !
 ! R87   R(54,73)                1.5535         estimate D2E/DX2                !
 ! R88   R(54,79)                1.3629         estimate D2E/DX2                !
 ! R89   R(55,73)                1.0733         estimate D2E/DX2                !
 ! R90   R(75,76)                1.0653         estimate D2E/DX2                !
 ! R91   R(75,77)                1.7574         estimate D2E/DX2                !
 ! R92   R(78,79)                1.7571         estimate D2E/DX2                !
 ! R93   R(79,80)                1.0651         estimate D2E/DX2                !
 ! R94   R(81,82)                0.96           estimate D2E/DX2                !
 ! A1    A(17,1,24)            110.6473         estimate D2E/DX2                !
 ! A2    A(17,1,27)            125.4021         estimate D2E/DX2                !
 ! A3    A(24,1,27)            123.8527         estimate D2E/DX2                !
 ! A4    A(18,2,20)            110.1629         estimate D2E/DX2                !
 ! A5    A(18,2,30)            127.2673         estimate D2E/DX2                !
 ! A6    A(20,2,30)            122.4022         estimate D2E/DX2                !
 ! A7    A(4,3,15)             126.5917         estimate D2E/DX2                !
 ! A8    A(4,3,20)             106.4821         estimate D2E/DX2                !
 ! A9    A(15,3,20)            126.9253         estimate D2E/DX2                !
 ! A10   A(3,4,18)             108.019          estimate D2E/DX2                !
 ! A11   A(3,4,29)             125.7631         estimate D2E/DX2                !
 ! A12   A(18,4,29)            126.2006         estimate D2E/DX2                !
 ! A13   A(16,5,22)            108.1809         estimate D2E/DX2                !
 ! A14   A(16,5,29)            127.033          estimate D2E/DX2                !
 ! A15   A(22,5,29)            124.5031         estimate D2E/DX2                !
 ! A16   A(7,6,22)             108.5179         estimate D2E/DX2                !
 ! A17   A(7,6,53)             126.8094         estimate D2E/DX2                !
 ! A18   A(22,6,53)            124.6314         estimate D2E/DX2                !
 ! A19   A(6,7,16)             110.3295         estimate D2E/DX2                !
 ! A20   A(6,7,27)             124.1765         estimate D2E/DX2                !
 ! A21   A(16,7,27)            125.453          estimate D2E/DX2                !
 ! A22   A(9,8,19)             110.2903         estimate D2E/DX2                !
 ! A23   A(9,8,30)             124.5462         estimate D2E/DX2                !
 ! A24   A(19,8,30)            125.1563         estimate D2E/DX2                !
 ! A25   A(8,9,14)             125.7092         estimate D2E/DX2                !
 ! A26   A(8,9,25)             108.2271         estimate D2E/DX2                !
 ! A27   A(14,9,25)            126.0611         estimate D2E/DX2                !
 ! A28   A(11,10,17)           107.9393         estimate D2E/DX2                !
 ! A29   A(11,10,28)           124.7526         estimate D2E/DX2                !
 ! A30   A(17,10,28)           127.152          estimate D2E/DX2                !
 ! A31   A(10,11,13)           127.2305         estimate D2E/DX2                !
 ! A32   A(10,11,24)           106.5102         estimate D2E/DX2                !
 ! A33   A(13,11,24)           126.2367         estimate D2E/DX2                !
 ! A34   A(19,12,25)           108.2653         estimate D2E/DX2                !
 ! A35   A(19,12,28)           125.8922         estimate D2E/DX2                !
 ! A36   A(25,12,28)           125.8361         estimate D2E/DX2                !
 ! A37   A(5,16,7)             105.8044         estimate D2E/DX2                !
 ! A38   A(5,16,49)            125.8828         estimate D2E/DX2                !
 ! A39   A(7,16,49)            128.2847         estimate D2E/DX2                !
 ! A40   A(1,17,10)            105.59           estimate D2E/DX2                !
 ! A41   A(1,17,49)            128.0487         estimate D2E/DX2                !
 ! A42   A(10,17,49)           126.3432         estimate D2E/DX2                !
 ! A43   A(2,18,4)             106.7675         estimate D2E/DX2                !
 ! A44   A(2,18,49)            127.0301         estimate D2E/DX2                !
 ! A45   A(4,18,49)            126.1257         estimate D2E/DX2                !
 ! A46   A(8,19,12)            106.2251         estimate D2E/DX2                !
 ! A47   A(8,19,49)            127.2351         estimate D2E/DX2                !
 ! A48   A(12,19,49)           126.5351         estimate D2E/DX2                !
 ! A49   A(2,20,3)             108.2714         estimate D2E/DX2                !
 ! A50   A(2,20,21)            125.8099         estimate D2E/DX2                !
 ! A51   A(3,20,21)            125.8929         estimate D2E/DX2                !
 ! A52   A(5,22,6)             106.2481         estimate D2E/DX2                !
 ! A53   A(5,22,23)            127.2756         estimate D2E/DX2                !
 ! A54   A(6,22,23)            126.4679         estimate D2E/DX2                !
 ! A55   A(1,24,11)            108.3468         estimate D2E/DX2                !
 ! A56   A(1,24,50)            126.8425         estimate D2E/DX2                !
 ! A57   A(11,24,50)           124.7798         estimate D2E/DX2                !
 ! A58   A(9,25,12)            106.8371         estimate D2E/DX2                !
 ! A59   A(9,25,26)            126.6819         estimate D2E/DX2                !
 ! A60   A(12,25,26)           126.4809         estimate D2E/DX2                !
 ! A61   A(1,27,7)             109.6579         estimate D2E/DX2                !
 ! A62   A(1,27,81)            125.0366         estimate D2E/DX2                !
 ! A63   A(7,27,81)            125.0756         estimate D2E/DX2                !
 ! A64   A(10,28,12)           118.569          estimate D2E/DX2                !
 ! A65   A(10,28,43)           119.5546         estimate D2E/DX2                !
 ! A66   A(12,28,43)           121.8379         estimate D2E/DX2                !
 ! A67   A(4,29,5)             118.1028         estimate D2E/DX2                !
 ! A68   A(4,29,31)            122.2994         estimate D2E/DX2                !
 ! A69   A(5,29,31)            119.5748         estimate D2E/DX2                !
 ! A70   A(2,30,8)             117.8158         estimate D2E/DX2                !
 ! A71   A(2,30,37)            120.9431         estimate D2E/DX2                !
 ! A72   A(8,30,37)            121.175          estimate D2E/DX2                !
 ! A73   A(29,31,32)           117.8905         estimate D2E/DX2                !
 ! A74   A(29,31,33)           121.4956         estimate D2E/DX2                !
 ! A75   A(32,31,33)           120.6117         estimate D2E/DX2                !
 ! A76   A(31,32,34)           119.8554         estimate D2E/DX2                !
 ! A77   A(31,32,60)           119.5748         estimate D2E/DX2                !
 ! A78   A(34,32,60)           120.5213         estimate D2E/DX2                !
 ! A79   A(31,33,35)           119.492          estimate D2E/DX2                !
 ! A80   A(31,33,56)           120.4608         estimate D2E/DX2                !
 ! A81   A(35,33,56)           120.0102         estimate D2E/DX2                !
 ! A82   A(32,34,36)           120.002          estimate D2E/DX2                !
 ! A83   A(32,34,59)           119.7194         estimate D2E/DX2                !
 ! A84   A(36,34,59)           120.2763         estimate D2E/DX2                !
 ! A85   A(33,35,36)           119.7349         estimate D2E/DX2                !
 ! A86   A(33,35,57)           120.1994         estimate D2E/DX2                !
 ! A87   A(36,35,57)           120.0642         estimate D2E/DX2                !
 ! A88   A(34,36,35)           120.0589         estimate D2E/DX2                !
 ! A89   A(34,36,58)           119.8815         estimate D2E/DX2                !
 ! A90   A(35,36,58)           120.0597         estimate D2E/DX2                !
 ! A91   A(30,37,38)           120.6676         estimate D2E/DX2                !
 ! A92   A(30,37,39)           119.4272         estimate D2E/DX2                !
 ! A93   A(38,37,39)           119.9052         estimate D2E/DX2                !
 ! A94   A(37,38,40)           119.7549         estimate D2E/DX2                !
 ! A95   A(37,38,61)           120.4416         estimate D2E/DX2                !
 ! A96   A(40,38,61)           119.7622         estimate D2E/DX2                !
 ! A97   A(37,39,41)           120.1154         estimate D2E/DX2                !
 ! A98   A(37,39,65)           119.6774         estimate D2E/DX2                !
 ! A99   A(41,39,65)           120.166          estimate D2E/DX2                !
 ! A100  A(38,40,42)           119.9083         estimate D2E/DX2                !
 ! A101  A(38,40,62)           120.2424         estimate D2E/DX2                !
 ! A102  A(42,40,62)           119.8476         estimate D2E/DX2                !
 ! A103  A(39,41,42)           120.1528         estimate D2E/DX2                !
 ! A104  A(39,41,64)           119.8634         estimate D2E/DX2                !
 ! A105  A(42,41,64)           119.9818         estimate D2E/DX2                !
 ! A106  A(40,42,41)           119.9381         estimate D2E/DX2                !
 ! A107  A(40,42,63)           120.0827         estimate D2E/DX2                !
 ! A108  A(41,42,63)           119.9791         estimate D2E/DX2                !
 ! A109  A(28,43,44)           118.3164         estimate D2E/DX2                !
 ! A110  A(28,43,45)           120.8797         estimate D2E/DX2                !
 ! A111  A(44,43,45)           120.8023         estimate D2E/DX2                !
 ! A112  A(43,44,46)           119.7428         estimate D2E/DX2                !
 ! A113  A(43,44,66)           119.706          estimate D2E/DX2                !
 ! A114  A(46,44,66)           120.5021         estimate D2E/DX2                !
 ! A115  A(43,45,47)           119.4444         estimate D2E/DX2                !
 ! A116  A(43,45,70)           120.3929         estimate D2E/DX2                !
 ! A117  A(47,45,70)           120.1238         estimate D2E/DX2                !
 ! A118  A(44,46,48)           119.9442         estimate D2E/DX2                !
 ! A119  A(44,46,67)           119.7698         estimate D2E/DX2                !
 ! A120  A(48,46,67)           120.2838         estimate D2E/DX2                !
 ! A121  A(45,47,48)           119.7422         estimate D2E/DX2                !
 ! A122  A(45,47,69)           120.1358         estimate D2E/DX2                !
 ! A123  A(48,47,69)           120.1203         estimate D2E/DX2                !
 ! A124  A(46,48,47)           120.0759         estimate D2E/DX2                !
 ! A125  A(46,48,68)           119.897          estimate D2E/DX2                !
 ! A126  A(47,48,68)           120.0271         estimate D2E/DX2                !
 ! A127  A(16,49,17)            89.9849         estimate D2E/DX2                !
 ! A128  A(16,49,18)            90.0153         estimate D2E/DX2                !
 ! A129  A(17,49,19)            89.8577         estimate D2E/DX2                !
 ! A130  A(18,49,19)            90.1421         estimate D2E/DX2                !
 ! A131  A(24,50,74)           126.9538         estimate D2E/DX2                !
 ! A132  A(24,50,77)           121.4302         estimate D2E/DX2                !
 ! A133  A(74,50,77)           111.6158         estimate D2E/DX2                !
 ! A134  A(72,51,74)           124.0659         estimate D2E/DX2                !
 ! A135  A(72,51,75)           123.7462         estimate D2E/DX2                !
 ! A136  A(74,51,75)           112.1825         estimate D2E/DX2                !
 ! A137  A(6,53,73)            126.7718         estimate D2E/DX2                !
 ! A138  A(6,53,78)            121.5515         estimate D2E/DX2                !
 ! A139  A(73,53,78)           111.6764         estimate D2E/DX2                !
 ! A140  A(71,54,73)           124.0633         estimate D2E/DX2                !
 ! A141  A(71,54,79)           123.7563         estimate D2E/DX2                !
 ! A142  A(73,54,79)           112.1756         estimate D2E/DX2                !
 ! A143  A(53,73,54)           110.9998         estimate D2E/DX2                !
 ! A144  A(53,73,55)           124.7325         estimate D2E/DX2                !
 ! A145  A(54,73,55)           124.2487         estimate D2E/DX2                !
 ! A146  A(50,74,51)           111.0513         estimate D2E/DX2                !
 ! A147  A(50,74,52)           124.707          estimate D2E/DX2                !
 ! A148  A(51,74,52)           124.2234         estimate D2E/DX2                !
 ! A149  A(51,75,76)           125.143          estimate D2E/DX2                !
 ! A150  A(51,75,77)           111.0086         estimate D2E/DX2                !
 ! A151  A(76,75,77)           123.8469         estimate D2E/DX2                !
 ! A152  A(50,77,75)            93.2375         estimate D2E/DX2                !
 ! A153  A(53,78,79)            93.244          estimate D2E/DX2                !
 ! A154  A(54,79,78)           111.0263         estimate D2E/DX2                !
 ! A155  A(54,79,80)           125.1511         estimate D2E/DX2                !
 ! A156  A(78,79,80)           123.8216         estimate D2E/DX2                !
 ! A157  A(27,81,82)           109.5            estimate D2E/DX2                !
 ! A158  L(16,49,19,18,-1)     180.1574         estimate D2E/DX2                !
 ! A159  L(17,49,18,19,-1)     179.9998         estimate D2E/DX2                !
 ! A160  L(16,49,19,18,-2)     182.2159         estimate D2E/DX2                !
 ! A161  L(17,49,18,19,-2)     179.9999         estimate D2E/DX2                !
 ! D1    D(24,1,17,10)          -3.0997         estimate D2E/DX2                !
 ! D2    D(24,1,17,49)         175.417          estimate D2E/DX2                !
 ! D3    D(27,1,17,10)        -179.6058         estimate D2E/DX2                !
 ! D4    D(27,1,17,49)          -1.089          estimate D2E/DX2                !
 ! D5    D(17,1,24,11)          -3.1449         estimate D2E/DX2                !
 ! D6    D(17,1,24,50)         178.8123         estimate D2E/DX2                !
 ! D7    D(27,1,24,11)         173.4258         estimate D2E/DX2                !
 ! D8    D(27,1,24,50)          -4.617          estimate D2E/DX2                !
 ! D9    D(17,1,27,7)           31.477          estimate D2E/DX2                !
 ! D10   D(17,1,27,81)        -153.8089         estimate D2E/DX2                !
 ! D11   D(24,1,27,7)         -144.5854         estimate D2E/DX2                !
 ! D12   D(24,1,27,81)          30.1288         estimate D2E/DX2                !
 ! D13   D(20,2,18,4)            2.8054         estimate D2E/DX2                !
 ! D14   D(20,2,18,49)         179.7578         estimate D2E/DX2                !
 ! D15   D(30,2,18,4)         -172.5369         estimate D2E/DX2                !
 ! D16   D(30,2,18,49)           4.4155         estimate D2E/DX2                !
 ! D17   D(18,2,20,3)           -5.4627         estimate D2E/DX2                !
 ! D18   D(18,2,20,21)         176.2995         estimate D2E/DX2                !
 ! D19   D(30,2,20,3)          170.1476         estimate D2E/DX2                !
 ! D20   D(30,2,20,21)          -8.0902         estimate D2E/DX2                !
 ! D21   D(18,2,30,8)           17.7371         estimate D2E/DX2                !
 ! D22   D(18,2,30,37)        -165.1856         estimate D2E/DX2                !
 ! D23   D(20,2,30,8)         -157.083          estimate D2E/DX2                !
 ! D24   D(20,2,30,37)          19.9943         estimate D2E/DX2                !
 ! D25   D(15,3,4,18)          175.8515         estimate D2E/DX2                !
 ! D26   D(15,3,4,29)           -2.7062         estimate D2E/DX2                !
 ! D27   D(20,3,4,18)           -3.8086         estimate D2E/DX2                !
 ! D28   D(20,3,4,29)          177.6337         estimate D2E/DX2                !
 ! D29   D(4,3,20,2)             5.3119         estimate D2E/DX2                !
 ! D30   D(4,3,20,21)         -176.4521         estimate D2E/DX2                !
 ! D31   D(15,3,20,2)         -174.3467         estimate D2E/DX2                !
 ! D32   D(15,3,20,21)           3.8893         estimate D2E/DX2                !
 ! D33   D(3,4,18,2)             0.3802         estimate D2E/DX2                !
 ! D34   D(3,4,18,49)         -176.6077         estimate D2E/DX2                !
 ! D35   D(29,4,18,2)          178.9298         estimate D2E/DX2                !
 ! D36   D(29,4,18,49)           1.9419         estimate D2E/DX2                !
 ! D37   D(3,4,29,5)          -164.8852         estimate D2E/DX2                !
 ! D38   D(3,4,29,31)           13.3613         estimate D2E/DX2                !
 ! D39   D(18,4,29,5)           16.8145         estimate D2E/DX2                !
 ! D40   D(18,4,29,31)        -164.939          estimate D2E/DX2                !
 ! D41   D(22,5,16,7)           -7.6286         estimate D2E/DX2                !
 ! D42   D(22,5,16,49)         170.5718         estimate D2E/DX2                !
 ! D43   D(29,5,16,7)          166.4373         estimate D2E/DX2                !
 ! D44   D(29,5,16,49)         -15.3623         estimate D2E/DX2                !
 ! D45   D(16,5,22,6)            9.8091         estimate D2E/DX2                !
 ! D46   D(16,5,22,23)        -171.1994         estimate D2E/DX2                !
 ! D47   D(29,5,22,6)         -164.4433         estimate D2E/DX2                !
 ! D48   D(29,5,22,23)          14.5482         estimate D2E/DX2                !
 ! D49   D(16,5,29,4)          -10.2325         estimate D2E/DX2                !
 ! D50   D(16,5,29,31)         171.4717         estimate D2E/DX2                !
 ! D51   D(22,5,29,4)          162.9222         estimate D2E/DX2                !
 ! D52   D(22,5,29,31)         -15.3736         estimate D2E/DX2                !
 ! D53   D(22,6,7,16)            3.7399         estimate D2E/DX2                !
 ! D54   D(22,6,7,27)         -174.0408         estimate D2E/DX2                !
 ! D55   D(53,6,7,16)         -178.523          estimate D2E/DX2                !
 ! D56   D(53,6,7,27)            3.6962         estimate D2E/DX2                !
 ! D57   D(7,6,22,5)            -8.4053         estimate D2E/DX2                !
 ! D58   D(7,6,22,23)          172.5926         estimate D2E/DX2                !
 ! D59   D(53,6,22,5)          173.7966         estimate D2E/DX2                !
 ! D60   D(53,6,22,23)          -5.2056         estimate D2E/DX2                !
 ! D61   D(7,6,53,73)         -155.2382         estimate D2E/DX2                !
 ! D62   D(7,6,53,78)           24.5288         estimate D2E/DX2                !
 ! D63   D(22,6,53,73)          22.1538         estimate D2E/DX2                !
 ! D64   D(22,6,53,78)        -158.0792         estimate D2E/DX2                !
 ! D65   D(6,7,16,5)             2.3638         estimate D2E/DX2                !
 ! D66   D(6,7,16,49)         -175.7786         estimate D2E/DX2                !
 ! D67   D(27,7,16,5)         -179.8901         estimate D2E/DX2                !
 ! D68   D(27,7,16,49)           1.9675         estimate D2E/DX2                !
 ! D69   D(6,7,27,1)           145.498          estimate D2E/DX2                !
 ! D70   D(6,7,27,81)          -29.2136         estimate D2E/DX2                !
 ! D71   D(16,7,27,1)          -31.9472         estimate D2E/DX2                !
 ! D72   D(16,7,27,81)         153.3412         estimate D2E/DX2                !
 ! D73   D(19,8,9,14)         -176.6353         estimate D2E/DX2                !
 ! D74   D(19,8,9,25)            3.9199         estimate D2E/DX2                !
 ! D75   D(30,8,9,14)            2.4382         estimate D2E/DX2                !
 ! D76   D(30,8,9,25)         -177.0065         estimate D2E/DX2                !
 ! D77   D(9,8,19,12)           -1.9818         estimate D2E/DX2                !
 ! D78   D(9,8,19,49)          178.7644         estimate D2E/DX2                !
 ! D79   D(30,8,19,12)         178.9516         estimate D2E/DX2                !
 ! D80   D(30,8,19,49)          -0.3023         estimate D2E/DX2                !
 ! D81   D(9,8,30,2)           161.554          estimate D2E/DX2                !
 ! D82   D(9,8,30,37)          -15.5162         estimate D2E/DX2                !
 ! D83   D(19,8,30,2)          -19.5088         estimate D2E/DX2                !
 ! D84   D(19,8,30,37)         163.421          estimate D2E/DX2                !
 ! D85   D(8,9,25,12)           -3.8603         estimate D2E/DX2                !
 ! D86   D(8,9,25,26)          176.0607         estimate D2E/DX2                !
 ! D87   D(14,9,25,12)         176.6975         estimate D2E/DX2                !
 ! D88   D(14,9,25,26)          -3.3816         estimate D2E/DX2                !
 ! D89   D(17,10,11,13)        171.5661         estimate D2E/DX2                !
 ! D90   D(17,10,11,24)        -10.0876         estimate D2E/DX2                !
 ! D91   D(28,10,11,13)        -12.7037         estimate D2E/DX2                !
 ! D92   D(28,10,11,24)        165.6426         estimate D2E/DX2                !
 ! D93   D(11,10,17,1)           8.2187         estimate D2E/DX2                !
 ! D94   D(11,10,17,49)       -170.3312         estimate D2E/DX2                !
 ! D95   D(28,10,17,1)        -167.3796         estimate D2E/DX2                !
 ! D96   D(28,10,17,49)         14.0705         estimate D2E/DX2                !
 ! D97   D(11,10,28,12)       -164.7712         estimate D2E/DX2                !
 ! D98   D(11,10,28,43)         13.013          estimate D2E/DX2                !
 ! D99   D(17,10,28,12)         10.1301         estimate D2E/DX2                !
 ! D100  D(17,10,28,43)       -172.0856         estimate D2E/DX2                !
 ! D101  D(10,11,24,1)           8.2434         estimate D2E/DX2                !
 ! D102  D(10,11,24,50)       -173.6636         estimate D2E/DX2                !
 ! D103  D(13,11,24,1)        -173.3891         estimate D2E/DX2                !
 ! D104  D(13,11,24,50)          4.7039         estimate D2E/DX2                !
 ! D105  D(25,12,19,8)          -0.3307         estimate D2E/DX2                !
 ! D106  D(25,12,19,49)        178.93           estimate D2E/DX2                !
 ! D107  D(28,12,19,8)        -179.4484         estimate D2E/DX2                !
 ! D108  D(28,12,19,49)         -0.1877         estimate D2E/DX2                !
 ! D109  D(19,12,25,9)           2.7968         estimate D2E/DX2                !
 ! D110  D(19,12,25,26)       -177.1244         estimate D2E/DX2                !
 ! D111  D(28,12,25,9)        -178.0849         estimate D2E/DX2                !
 ! D112  D(28,12,25,26)          1.9939         estimate D2E/DX2                !
 ! D113  D(19,12,28,10)        -16.8096         estimate D2E/DX2                !
 ! D114  D(19,12,28,43)        165.4593         estimate D2E/DX2                !
 ! D115  D(25,12,28,10)        164.2239         estimate D2E/DX2                !
 ! D116  D(25,12,28,43)        -13.5072         estimate D2E/DX2                !
 ! D117  D(5,16,49,17)        -154.8724         estimate D2E/DX2                !
 ! D118  D(5,16,49,18)          25.1276         estimate D2E/DX2                !
 ! D119  D(7,16,49,17)          22.9214         estimate D2E/DX2                !
 ! D120  D(7,16,49,18)        -157.0786         estimate D2E/DX2                !
 ! D121  D(1,17,49,16)         -23.258          estimate D2E/DX2                !
 ! D122  D(1,17,49,19)         158.9579         estimate D2E/DX2                !
 ! D123  D(10,17,49,16)        154.9682         estimate D2E/DX2                !
 ! D124  D(10,17,49,19)        -22.8159         estimate D2E/DX2                !
 ! D125  D(2,18,49,16)         164.3895         estimate D2E/DX2                !
 ! D126  D(2,18,49,19)         -17.8264         estimate D2E/DX2                !
 ! D127  D(4,18,49,16)         -19.2239         estimate D2E/DX2                !
 ! D128  D(4,18,49,19)         158.5603         estimate D2E/DX2                !
 ! D129  D(8,19,49,17)        -164.1022         estimate D2E/DX2                !
 ! D130  D(8,19,49,18)          15.8978         estimate D2E/DX2                !
 ! D131  D(12,19,49,17)         16.7894         estimate D2E/DX2                !
 ! D132  D(12,19,49,18)       -163.2105         estimate D2E/DX2                !
 ! D133  D(1,24,50,74)         151.3846         estimate D2E/DX2                !
 ! D134  D(1,24,50,77)         -28.7625         estimate D2E/DX2                !
 ! D135  D(11,24,50,74)        -26.3535         estimate D2E/DX2                !
 ! D136  D(11,24,50,77)        153.4995         estimate D2E/DX2                !
 ! D137  D(1,27,81,82)          92.6205         estimate D2E/DX2                !
 ! D138  D(7,27,81,82)         -93.4647         estimate D2E/DX2                !
 ! D139  D(10,28,43,44)       -100.3567         estimate D2E/DX2                !
 ! D140  D(10,28,43,45)         79.1971         estimate D2E/DX2                !
 ! D141  D(12,28,43,44)         77.3527         estimate D2E/DX2                !
 ! D142  D(12,28,43,45)       -103.0936         estimate D2E/DX2                !
 ! D143  D(4,29,31,32)         -76.1283         estimate D2E/DX2                !
 ! D144  D(4,29,31,33)         104.4119         estimate D2E/DX2                !
 ! D145  D(5,29,31,32)         102.0932         estimate D2E/DX2                !
 ! D146  D(5,29,31,33)         -77.3666         estimate D2E/DX2                !
 ! D147  D(2,30,37,38)          77.5606         estimate D2E/DX2                !
 ! D148  D(2,30,37,39)        -102.443          estimate D2E/DX2                !
 ! D149  D(8,30,37,38)        -105.4607         estimate D2E/DX2                !
 ! D150  D(8,30,37,39)          74.5356         estimate D2E/DX2                !
 ! D151  D(29,31,32,34)       -176.3988         estimate D2E/DX2                !
 ! D152  D(29,31,32,60)          1.0832         estimate D2E/DX2                !
 ! D153  D(33,31,32,34)          3.0661         estimate D2E/DX2                !
 ! D154  D(33,31,32,60)       -179.452          estimate D2E/DX2                !
 ! D155  D(29,31,33,35)       -179.018          estimate D2E/DX2                !
 ! D156  D(29,31,33,56)         -1.2303         estimate D2E/DX2                !
 ! D157  D(32,31,33,35)          1.5368         estimate D2E/DX2                !
 ! D158  D(32,31,33,56)        179.3245         estimate D2E/DX2                !
 ! D159  D(31,32,34,36)         -4.8613         estimate D2E/DX2                !
 ! D160  D(31,32,34,59)        174.591          estimate D2E/DX2                !
 ! D161  D(60,32,34,36)        177.6809         estimate D2E/DX2                !
 ! D162  D(60,32,34,59)         -2.8668         estimate D2E/DX2                !
 ! D163  D(31,33,35,36)         -4.3217         estimate D2E/DX2                !
 ! D164  D(31,33,35,57)        175.2341         estimate D2E/DX2                !
 ! D165  D(56,33,35,36)        177.8805         estimate D2E/DX2                !
 ! D166  D(56,33,35,57)         -2.5637         estimate D2E/DX2                !
 ! D167  D(32,34,36,35)          2.0618         estimate D2E/DX2                !
 ! D168  D(32,34,36,58)       -177.9443         estimate D2E/DX2                !
 ! D169  D(59,34,36,35)       -177.3874         estimate D2E/DX2                !
 ! D170  D(59,34,36,58)          2.6065         estimate D2E/DX2                !
 ! D171  D(33,35,36,34)          2.5426         estimate D2E/DX2                !
 ! D172  D(33,35,36,58)       -177.4513         estimate D2E/DX2                !
 ! D173  D(57,35,36,34)       -177.0138         estimate D2E/DX2                !
 ! D174  D(57,35,36,58)          2.9923         estimate D2E/DX2                !
 ! D175  D(30,37,38,40)        177.9227         estimate D2E/DX2                !
 ! D176  D(30,37,38,61)          0.2666         estimate D2E/DX2                !
 ! D177  D(39,37,38,40)         -2.0736         estimate D2E/DX2                !
 ! D178  D(39,37,38,61)       -179.7297         estimate D2E/DX2                !
 ! D179  D(30,37,39,41)        177.6285         estimate D2E/DX2                !
 ! D180  D(30,37,39,65)         -0.0411         estimate D2E/DX2                !
 ! D181  D(38,37,39,41)         -2.3751         estimate D2E/DX2                !
 ! D182  D(38,37,39,65)        179.9553         estimate D2E/DX2                !
 ! D183  D(37,38,40,42)          4.3869         estimate D2E/DX2                !
 ! D184  D(37,38,40,62)       -175.1401         estimate D2E/DX2                !
 ! D185  D(61,38,40,42)       -177.941          estimate D2E/DX2                !
 ! D186  D(61,38,40,62)          2.532          estimate D2E/DX2                !
 ! D187  D(37,39,41,42)          4.5283         estimate D2E/DX2                !
 ! D188  D(37,39,41,64)       -174.9638         estimate D2E/DX2                !
 ! D189  D(65,39,41,42)       -177.8135         estimate D2E/DX2                !
 ! D190  D(65,39,41,64)          2.6943         estimate D2E/DX2                !
 ! D191  D(38,40,42,41)         -2.2586         estimate D2E/DX2                !
 ! D192  D(38,40,42,63)        177.734          estimate D2E/DX2                !
 ! D193  D(62,40,42,41)        177.2703         estimate D2E/DX2                !
 ! D194  D(62,40,42,63)         -2.7371         estimate D2E/DX2                !
 ! D195  D(39,41,42,40)         -2.1988         estimate D2E/DX2                !
 ! D196  D(39,41,42,63)        177.8086         estimate D2E/DX2                !
 ! D197  D(64,41,42,40)        177.2928         estimate D2E/DX2                !
 ! D198  D(64,41,42,63)         -2.6998         estimate D2E/DX2                !
 ! D199  D(28,43,44,46)        176.7465         estimate D2E/DX2                !
 ! D200  D(28,43,44,66)         -0.7187         estimate D2E/DX2                !
 ! D201  D(45,43,44,46)         -2.8076         estimate D2E/DX2                !
 ! D202  D(45,43,44,66)        179.7272         estimate D2E/DX2                !
 ! D203  D(28,43,45,47)        178.6072         estimate D2E/DX2                !
 ! D204  D(28,43,45,70)          0.872          estimate D2E/DX2                !
 ! D205  D(44,43,45,47)         -1.8502         estimate D2E/DX2                !
 ! D206  D(44,43,45,70)       -179.5854         estimate D2E/DX2                !
 ! D207  D(43,44,46,48)          4.8014         estimate D2E/DX2                !
 ! D208  D(43,44,46,67)       -174.6608         estimate D2E/DX2                !
 ! D209  D(66,44,46,48)       -177.7539         estimate D2E/DX2                !
 ! D210  D(66,44,46,67)          2.7839         estimate D2E/DX2                !
 ! D211  D(43,45,47,48)          4.4845         estimate D2E/DX2                !
 ! D212  D(43,45,47,69)       -175.041          estimate D2E/DX2                !
 ! D213  D(70,45,47,48)       -177.774          estimate D2E/DX2                !
 ! D214  D(70,45,47,69)          2.7004         estimate D2E/DX2                !
 ! D215  D(44,46,48,47)         -2.157          estimate D2E/DX2                !
 ! D216  D(44,46,48,68)        177.8312         estimate D2E/DX2                !
 ! D217  D(67,46,48,47)        177.3024         estimate D2E/DX2                !
 ! D218  D(67,46,48,68)         -2.7094         estimate D2E/DX2                !
 ! D219  D(45,47,48,46)         -2.5052         estimate D2E/DX2                !
 ! D220  D(45,47,48,68)        177.5066         estimate D2E/DX2                !
 ! D221  D(69,47,48,46)        177.0205         estimate D2E/DX2                !
 ! D222  D(69,47,48,68)         -2.9678         estimate D2E/DX2                !
 ! D223  D(24,50,74,51)       -173.8659         estimate D2E/DX2                !
 ! D224  D(24,50,74,52)          4.6274         estimate D2E/DX2                !
 ! D225  D(77,50,74,51)          6.2691         estimate D2E/DX2                !
 ! D226  D(77,50,74,52)       -175.2377         estimate D2E/DX2                !
 ! D227  D(24,50,77,75)        171.4646         estimate D2E/DX2                !
 ! D228  D(74,50,77,75)         -8.6618         estimate D2E/DX2                !
 ! D229  D(72,51,74,50)        179.3614         estimate D2E/DX2                !
 ! D230  D(72,51,74,52)          0.8595         estimate D2E/DX2                !
 ! D231  D(75,51,74,50)          0.1811         estimate D2E/DX2                !
 ! D232  D(75,51,74,52)       -178.3208         estimate D2E/DX2                !
 ! D233  D(72,51,75,76)         -6.1335         estimate D2E/DX2                !
 ! D234  D(72,51,75,77)        174.2855         estimate D2E/DX2                !
 ! D235  D(74,51,75,76)        173.0499         estimate D2E/DX2                !
 ! D236  D(74,51,75,77)         -6.5311         estimate D2E/DX2                !
 ! D237  D(6,53,73,54)         173.674          estimate D2E/DX2                !
 ! D238  D(6,53,73,55)          -4.7972         estimate D2E/DX2                !
 ! D239  D(78,53,73,54)         -6.1123         estimate D2E/DX2                !
 ! D240  D(78,53,73,55)        175.4164         estimate D2E/DX2                !
 ! D241  D(6,53,78,79)        -171.2904         estimate D2E/DX2                !
 ! D242  D(73,53,78,79)          8.5088         estimate D2E/DX2                !
 ! D243  D(71,54,73,53)       -179.4919         estimate D2E/DX2                !
 ! D244  D(71,54,73,55)         -1.0118         estimate D2E/DX2                !
 ! D245  D(79,54,73,53)         -0.2669         estimate D2E/DX2                !
 ! D246  D(79,54,73,55)        178.2131         estimate D2E/DX2                !
 ! D247  D(71,54,79,78)       -174.2744         estimate D2E/DX2                !
 ! D248  D(71,54,79,80)          6.0814         estimate D2E/DX2                !
 ! D249  D(73,54,79,78)          6.4978         estimate D2E/DX2                !
 ! D250  D(73,54,79,80)       -173.1464         estimate D2E/DX2                !
 ! D251  D(51,75,77,50)          8.6917         estimate D2E/DX2                !
 ! D252  D(76,75,77,50)       -170.8958         estimate D2E/DX2                !
 ! D253  D(53,78,79,54)         -8.5895         estimate D2E/DX2                !
 ! D254  D(53,78,79,80)        171.0603         estimate D2E/DX2                !
 --------------------------------------------------------------------------------
 Trust Radius=3.00D-01 FncErr=1.00D-07 GrdErr=1.00D-06 EigMax=2.50D+02 EigMin=1.00D-04
 Number of steps in this run=    492 maximum allowed number of steps=    492.
 GradGradGradGradGradGradGradGradGradGradGradGradGradGradGradGradGradGrad

 Stoichiometry    C46H13F15N4NiOS2
 Framework group  C1[X(C46H13F15N4NiOS2)]
 Deg. of freedom   240
 Full point group                 C1      NOp   1
 Largest Abelian subgroup         C1      NOp   1
 Largest concise Abelian subgroup C1      NOp   1
                         Standard orientation:                         
 ---------------------------------------------------------------------
 Center     Atomic      Atomic             Coordinates (Angstroms)
 Number     Number       Type             X           Y           Z
 ---------------------------------------------------------------------
      1          6           0       -1.219931   -2.419741   -0.827578
      2          6           0        1.181029    2.746416   -0.285345
      3          6           0        3.436148    2.568241    0.321704
      4          6           0        2.745012    1.216248    0.287987
      5          6           0        2.662525   -1.092523    0.212061
      6          6           0        2.393496   -3.132296   -0.599737
      7          6           0        1.217551   -2.429673   -0.806372
      8          6           0       -1.178300    2.791121   -0.198909
      9          6           0       -2.526869    3.506949   -0.001000
     10          6           0       -2.673248   -1.078003    0.180075
     11          6           0       -3.259213   -2.334138    0.100196
     12          6           0       -2.746466    1.234533    0.314657
     13          1           0       -4.205313   -2.632434    0.496747
     14          1           0       -2.700369    4.553970   -0.120878
     15          1           0        4.443568    2.761948    0.624366
     16          7           0        1.318367   -1.197902   -0.301401
     17          7           0       -1.318592   -1.186034   -0.315150
     18          7           0        1.331434    1.433707   -0.098266
     19          7           0       -1.328367    1.451672   -0.038368
     20          6           0        2.531574    3.469092   -0.095280
     21          1           0        2.707871    4.511541   -0.240780
     22          6           0        3.251803   -2.342975    0.139652
     23          1           0        4.190088   -2.641054    0.554387
     24          6           0       -2.393798   -3.125327   -0.630326
     25          6           0       -3.440402    2.590097    0.359235
     26          1           0       -4.457738    2.774149    0.627118
     27          6           0        0.004738   -3.000956   -1.453779
     28          6           0       -3.317810    0.055187    0.569795
     29          6           0        3.309661    0.043488    0.586097
     30          6           0        0.006608    3.426372   -0.515037
     31          6           0        4.661169   -0.055948    1.289807
     32          6           0        5.803898    0.191606    0.540012
     33          6           0        4.757447   -0.397292    2.648201
     34          6           0        7.062724    0.038827    1.121570
     35          6           0        6.018201   -0.456264    3.257009
     36          6           0        7.172458   -0.263996    2.485456
     37          6           0        0.019427    4.874042   -1.042872
     38          6           0        0.269490    5.140888   -2.404927
     39          6           0       -0.219252    5.926788   -0.160824
     40          6           0        0.233445    6.464598   -2.874127
     41          6           0       -0.162010    7.250201   -0.614552
     42          6           0        0.041142    7.519665   -1.973544
     43          6           0       -4.683779   -0.048515    1.234061
     44          6           0       -5.812270    0.195110    0.461639
     45          6           0       -4.800996   -0.390243    2.587664
     46          6           0       -7.080582    0.042016    1.021824
     47          6           0       -6.070057   -0.448377    3.175236
     48          6           0       -7.211915   -0.257718    2.384603
     49         28           0        0.005545    0.122966   -0.206781
     50          6           0       -2.691490   -4.545906   -1.085288
     51          6           0       -3.447647   -6.828257   -1.174980
     52          1           0       -4.167622   -5.212323    0.345537
     53          6           0        2.696762   -4.551101   -1.048966
     54          6           0        3.499131   -6.817278   -1.138453
     55          1           0        4.268481   -5.155953    0.307174
     56          9           0        3.642208   -0.624389    3.378775
     57          9           0        6.121948   -0.688513    4.583977
     58          9           0        8.390673   -0.370207    3.054248
     59          9           0        8.169796    0.172812    0.363803
     60          9           0        5.686594    0.528783   -0.760621
     61          9           0        0.496835    4.128228   -3.270580
     62          9           0        0.374155    6.723300   -4.193034
     63          9           0        0.051565    8.796006   -2.414115
     64          9           0       -0.292819    8.267309    0.262304
     65          9           0       -0.458796    5.666264    1.140738
     66          9           0       -5.673468    0.528085   -0.838679
     67          9           0       -8.175607    0.172692    0.245648
     68          9           0       -8.438412   -0.362268    2.934506
     69          9           0       -6.193850   -0.677713    4.500500
     70          9           0       -3.696593   -0.617485    3.333967
     71          1           0        4.103950   -7.650522   -0.852810
     72          1           0       -4.015395   -7.681101   -0.870282
     73          6           0        3.597165   -5.408473   -0.491224
     74          6           0       -3.538268   -5.434122   -0.494915
     75          6           0       -2.545702   -6.844829   -2.196339
     76          1           0       -2.242778   -7.713886   -2.732892
     77         16           0       -1.925933   -5.231698   -2.515796
     78         16           0        1.863019   -5.282444   -2.415370
     79          6           0        2.538874   -6.874145   -2.103890
     80          1           0        2.226065   -7.759689   -2.606220
     81          8           0        0.010103   -4.037664   -2.438720
     82          1           0        0.012969   -3.646683   -3.315490
 ---------------------------------------------------------------------
 Rotational constants (GHZ):           0.0269690           0.0247320           0.0160848
 General basis read from cards:  (5D, 7F)
 ======================================================================================================
                                       Pseudopotential Parameters
 ======================================================================================================
  Center     Atomic      Valence      Angular      Power
  Number     Number     Electrons     Momentum     of R      Exponent        Coefficient   SO-Coeffient
 ======================================================================================================
    1          6
                                   No pseudopotential on this center.
    2          6
                                   No pseudopotential on this center.
    3          6
                                   No pseudopotential on this center.
    4          6
                                   No pseudopotential on this center.
    5          6
                                   No pseudopotential on this center.
    6          6
                                   No pseudopotential on this center.
    7          6
                                   No pseudopotential on this center.
    8          6
                                   No pseudopotential on this center.
    9          6
                                   No pseudopotential on this center.
   10          6
                                   No pseudopotential on this center.
   11          6
                                   No pseudopotential on this center.
   12          6
                                   No pseudopotential on this center.
   13          1
                                   No pseudopotential on this center.
   14          1
                                   No pseudopotential on this center.
   15          1
                                   No pseudopotential on this center.
   16          7
                                   No pseudopotential on this center.
   17          7
                                   No pseudopotential on this center.
   18          7
                                   No pseudopotential on this center.
   19          7
                                   No pseudopotential on this center.
   20          6
                                   No pseudopotential on this center.
   21          1
                                   No pseudopotential on this center.
   22          6
                                   No pseudopotential on this center.
   23          1
                                   No pseudopotential on this center.
   24          6
                                   No pseudopotential on this center.
   25          6
                                   No pseudopotential on this center.
   26          1
                                   No pseudopotential on this center.
   27          6
                                   No pseudopotential on this center.
   28          6
                                   No pseudopotential on this center.
   29          6
                                   No pseudopotential on this center.
   30          6
                                   No pseudopotential on this center.
   31          6
                                   No pseudopotential on this center.
   32          6
                                   No pseudopotential on this center.
   33          6
                                   No pseudopotential on this center.
   34          6
                                   No pseudopotential on this center.
   35          6
                                   No pseudopotential on this center.
   36          6
                                   No pseudopotential on this center.
   37          6
                                   No pseudopotential on this center.
   38          6
                                   No pseudopotential on this center.
   39          6
                                   No pseudopotential on this center.
   40          6
                                   No pseudopotential on this center.
   41          6
                                   No pseudopotential on this center.
   42          6
                                   No pseudopotential on this center.
   43          6
                                   No pseudopotential on this center.
   44          6
                                   No pseudopotential on this center.
   45          6
                                   No pseudopotential on this center.
   46          6
                                   No pseudopotential on this center.
   47          6
                                   No pseudopotential on this center.
   48          6
                                   No pseudopotential on this center.
   49         28           18
                                      D and up 
                                                     1      469.9324331      -10.00000000    0.00000000
                                                     2       85.4236411      -69.40848050    0.00000000
                                                     2       21.2674984      -12.09510200    0.00000000
                                      S - D
                                                     0      162.1686097        3.00000000    0.00000000
                                                     1      176.5333232       22.02536180    0.00000000
                                                     2       68.9562010      443.01810880    0.00000000
                                                     2       13.5792838      145.56964110    0.00000000
                                      P - D
                                                     0       69.0181506        5.00000000    0.00000000
                                                     1      275.5955596        4.98828240    0.00000000
                                                     2       47.1315453      256.69458530    0.00000000
                                                     2       12.9874075       78.47544500    0.00000000
   50          6
                                   No pseudopotential on this center.
   51          6
                                   No pseudopotential on this center.
   52          1
                                   No pseudopotential on this center.
   53          6
                                   No pseudopotential on this center.
   54          6
                                   No pseudopotential on this center.
   55          1
                                   No pseudopotential on this center.
   56          9
                                   No pseudopotential on this center.
   57          9
                                   No pseudopotential on this center.
   58          9
                                   No pseudopotential on this center.
   59          9
                                   No pseudopotential on this center.
   60          9
                                   No pseudopotential on this center.
   61          9
                                   No pseudopotential on this center.
   62          9
                                   No pseudopotential on this center.
   63          9
                                   No pseudopotential on this center.
   64          9
                                   No pseudopotential on this center.
   65          9
                                   No pseudopotential on this center.
   66          9
                                   No pseudopotential on this center.
   67          9
                                   No pseudopotential on this center.
   68          9
                                   No pseudopotential on this center.
   69          9
                                   No pseudopotential on this center.
   70          9
                                   No pseudopotential on this center.
   71          1
                                   No pseudopotential on this center.
   72          1
                                   No pseudopotential on this center.
   73          6
                                   No pseudopotential on this center.
   74          6
                                   No pseudopotential on this center.
   75          6
                                   No pseudopotential on this center.
   76          1
                                   No pseudopotential on this center.
   77         16
                                   No pseudopotential on this center.
   78         16
                                   No pseudopotential on this center.
   79          6
                                   No pseudopotential on this center.
   80          1
                                   No pseudopotential on this center.
   81          8
                                   No pseudopotential on this center.
   82          1
                                   No pseudopotential on this center.
 ======================================================================================================
 There are  1117 symmetry adapted cartesian basis functions of A   symmetry.
 There are  1047 symmetry adapted basis functions of A   symmetry.
  1047 basis functions,  2095 primitive gaussians,  1117 cartesian basis functions
   255 alpha electrons      255 beta electrons
       nuclear repulsion energy     11812.4159010317 Hartrees.
 NAtoms=   82 NActive=   82 NUniq=   82 SFac= 1.00D+00 NAtFMM=   60 NAOKFM=T Big=T
 Integral buffers will be    131072 words long.
 Raffenetti 2 integral format.
 Two-electron integral symmetry is turned on.
 One-electron integrals computed using PRISM.
   1 Symmetry operations used in ECPInt.
 ECPInt:  NShTT=   51681 NPrTT=  356211 LenC2=   28349 LenP2D=   90619.
 LDataN:  DoStor=T MaxTD1= 4 Len=   56
 NBasis=  1047 RedAO= T EigKep=  3.38D-04  NBF=  1047
 NBsUse=  1047 1.00D-06 EigRej= -1.00D+00 NBFU=  1047
 ExpMin= 2.40D-02 ExpMax= 2.19D+04 ExpMxC= 3.30D+03 IAcc=3 IRadAn=         5 AccDes= 0.00D+00
 Harris functional with IExCor=  402 and IRadAn=       5 diagonalized for initial guess.
 HarFok:  IExCor=  402 AccDes= 0.00D+00 IRadAn=         5 IDoV= 1 UseB2=F ITyADJ=14
 ICtDFT=  3500011 ScaDFX=  1.000000  1.000000  1.000000  1.000000
 FoFCou: FMM=F IPFlag=           0 FMFlag=      100000 FMFlg1=        2001
         NFxFlg=           0 DoJE=T BraDBF=F KetDBF=T FulRan=T
         wScrn=  0.000000 ICntrl=       500 IOpCl=  0 I1Cent=   200000004 NGrid=           0
         NMat0=    1 NMatS0=      1 NMatT0=    0 NMatD0=    1 NMtDS0=    0 NMtDT0=    0
 Petite list used in FoFCou.
 Requested convergence on RMS density matrix=1.00D-08 within1000 cycles.
 Requested convergence on MAX density matrix=1.00D-06.
 Requested convergence on             energy=1.00D-06.
 No special actions if energy rises.
 EnCoef did     3 forward-backward iterations
 EnCoef did   100 forward-backward iterations
 EnCoef did     8 forward-backward iterations
 EnCoef did     4 forward-backward iterations
 Restarting incremental Fock formation.
 SCF Done:  E(RB3LYP) =  -4517.88118062     A.U. after   22 cycles
            NFock= 22  Conv=0.23D-08     -V/T= 2.0196

 **********************************************************************

            Population analysis using the SCF Density.

 **********************************************************************

 Orbital symmetries:
       Occupied  (A) (A) (A) (A) (A) (A) (A) (A) (A) (A) (A) (A)
                 (A) (A) (A) (A) (A) (A) (A) (A) (A) (A) (A) (A)
                 (A) (A) (A) (A) (A) (A) (A) (A) (A) (A) (A) (A)
                 (A) (A) (A) (A) (A) (A) (A) (A) (A) (A) (A) (A)
                 (A) (A) (A) (A) (A) (A) (A) (A) (A) (A) (A) (A)
                 (A) (A) (A) (A) (A) (A) (A) (A) (A) (A) (A) (A)
                 (A) (A) (A) (A) (A) (A) (A) (A) (A) (A) (A) (A)
                 (A) (A) (A) (A) (A) (A) (A) (A) (A) (A) (A) (A)
                 (A) (A) (A) (A) (A) (A) (A) (A) (A) (A) (A) (A)
                 (A) (A) (A) (A) (A) (A) (A) (A) (A) (A) (A) (A)
                 (A) (A) (A) (A) (A) (A) (A) (A) (A) (A) (A) (A)
                 (A) (A) (A) (A) (A) (A) (A) (A) (A) (A) (A) (A)
                 (A) (A) (A) (A) (A) (A) (A) (A) (A) (A) (A) (A)
                 (A) (A) (A) (A) (A) (A) (A) (A) (A) (A) (A) (A)
                 (A) (A) (A) (A) (A) (A) (A) (A) (A) (A) (A) (A)
                 (A) (A) (A) (A) (A) (A) (A) (A) (A) (A) (A) (A)
                 (A) (A) (A) (A) (A) (A) (A) (A) (A) (A) (A) (A)
                 (A) (A) (A) (A) (A) (A) (A) (A) (A) (A) (A) (A)
                 (A) (A) (A) (A) (A) (A) (A) (A) (A) (A) (A) (A)
                 (A) (A) (A) (A) (A) (A) (A) (A) (A) (A) (A) (A)
                 (A) (A) (A) (A) (A) (A) (A) (A) (A) (A) (A) (A)
                 (A) (A) (A)
       Virtual   (A) (A) (A) (A) (A) (A) (A) (A) (A) (A) (A) (A)
                 (A) (A) (A) (A) (A) (A) (A) (A) (A) (A) (A) (A)
                 (A) (A) (A) (A) (A) (A) (A) (A) (A) (A) (A) (A)
                 (A) (A) (A) (A) (A) (A) (A) (A) (A) (A) (A) (A)
                 (A) (A) (A) (A) (A) (A) (A) (A) (A) (A) (A) (A)
                 (A) (A) (A) (A) (A) (A) (A) (A) (A) (A) (A) (A)
                 (A) (A) (A) (A) (A) (A) (A) (A) (A) (A) (A) (A)
                 (A) (A) (A) (A) (A) (A) (A) (A) (A) (A) (A) (A)
                 (A) (A) (A) (A) (A) (A) (A) (A) (A) (A) (A) (A)
                 (A) (A) (A) (A) (A) (A) (A) (A) (A) (A) (A) (A)
                 (A) (A) (A) (A) (A) (A) (A) (A) (A) (A) (A) (A)
                 (A) (A) (A) (A) (A) (A) (A) (A) (A) (A) (A) (A)
                 (A) (A) (A) (A) (A) (A) (A) (A) (A) (A) (A) (A)
                 (A) (A) (A) (A) (A) (A) (A) (A) (A) (A) (A) (A)
                 (A) (A) (A) (A) (A) (A) (A) (A) (A) (A) (A) (A)
                 (A) (A) (A) (A) (A) (A) (A) (A) (A) (A) (A) (A)
                 (A) (A) (A) (A) (A) (A) (A) (A) (A) (A) (A) (A)
                 (A) (A) (A) (A) (A) (A) (A) (A) (A) (A) (A) (A)
                 (A) (A) (A) (A) (A) (A) (A) (A) (A) (A) (A) (A)
                 (A) (A) (A) (A) (A) (A) (A) (A) (A) (A) (A) (A)
                 (A) (A) (A) (A) (A) (A) (A) (A) (A) (A) (A) (A)
                 (A) (A) (A) (A) (A) (A) (A) (A) (A) (A) (A) (A)
                 (A) (A) (A) (A) (A) (A) (A) (A) (A) (A) (A) (A)
                 (A) (A) (A) (A) (A) (A) (A) (A) (A) (A) (A) (A)
                 (A) (A) (A) (A) (A) (A) (A) (A) (A) (A) (A) (A)
                 (A) (A) (A) (A) (A) (A) (A) (A) (A) (A) (A) (A)
                 (A) (A) (A) (A) (A) (A) (A) (A) (A) (A) (A) (A)
                 (A) (A) (A) (A) (A) (A) (A) (A) (A) (A) (A) (A)
                 (A) (A) (A) (A) (A) (A) (A) (A) (A) (A) (A) (A)
                 (A) (A) (A) (A) (A) (A) (A) (A) (A) (A) (A) (A)
                 (A) (A) (A) (A) (A) (A) (A) (A) (A) (A) (A) (A)
                 (A) (A) (A) (A) (A) (A) (A) (A) (A) (A) (A) (A)
                 (A) (A) (A) (A) (A) (A) (A) (A) (A) (A) (A) (A)
                 (A) (A) (A) (A) (A) (A) (A) (A) (A) (A) (A) (A)
                 (A) (A) (A) (A) (A) (A) (A) (A) (A) (A) (A) (A)
                 (A) (A) (A) (A) (A) (A) (A) (A) (A) (A) (A) (A)
                 (A) (A) (A) (A) (A) (A) (A) (A) (A) (A) (A) (A)
                 (A) (A) (A) (A) (A) (A) (A) (A) (A) (A) (A) (A)
                 (A) (A) (A) (A) (A) (A) (A) (A) (A) (A) (A) (A)
                 (A) (A) (A) (A) (A) (A) (A) (A) (A) (A) (A) (A)
                 (A) (A) (A) (A) (A) (A) (A) (A) (A) (A) (A) (A)
                 (A) (A) (A) (A) (A) (A) (A) (A) (A) (A) (A) (A)
                 (A) (A) (A) (A) (A) (A) (A) (A) (A) (A) (A) (A)
                 (A) (A) (A) (A) (A) (A) (A) (A) (A) (A) (A) (A)
                 (A) (A) (A) (A) (A) (A) (A) (A) (A) (A) (A) (A)
                 (A) (A) (A) (A) (A) (A) (A) (A) (A) (A) (A) (A)
                 (A) (A) (A) (A) (A) (A) (A) (A) (A) (A) (A) (A)
                 (A) (A) (A) (A) (A) (A) (A) (A) (A) (A) (A) (A)
                 (A) (A) (A) (A) (A) (A) (A) (A) (A) (A) (A) (A)
                 (A) (A) (A) (A) (A) (A) (A) (A) (A) (A) (A) (A)
                 (A) (A) (A) (A) (A) (A) (A) (A) (A) (A) (A) (A)
                 (A) (A) (A) (A) (A) (A) (A) (A) (A) (A) (A) (A)
                 (A) (A) (A) (A) (A) (A) (A) (A) (A) (A) (A) (A)
                 (A) (A) (A) (A) (A) (A) (A) (A) (A) (A) (A) (A)
                 (A) (A) (A) (A) (A) (A) (A) (A) (A) (A) (A) (A)
                 (A) (A) (A) (A) (A) (A) (A) (A) (A) (A) (A) (A)
                 (A) (A) (A) (A) (A) (A) (A) (A) (A) (A) (A) (A)
                 (A) (A) (A) (A) (A) (A) (A) (A) (A) (A) (A) (A)
                 (A) (A) (A) (A) (A) (A) (A) (A) (A) (A) (A) (A)
                 (A) (A) (A) (A) (A) (A) (A) (A) (A) (A) (A) (A)
                 (A) (A) (A) (A) (A) (A) (A) (A) (A) (A) (A) (A)
                 (A) (A) (A) (A) (A) (A) (A) (A) (A) (A) (A) (A)
                 (A) (A) (A) (A) (A) (A) (A) (A) (A) (A) (A) (A)
                 (A) (A) (A) (A) (A) (A) (A) (A) (A) (A) (A) (A)
                 (A) (A) (A) (A) (A) (A) (A) (A) (A) (A) (A) (A)
                 (A) (A) (A) (A) (A) (A) (A) (A) (A) (A) (A) (A)
 The electronic state is 1-A.
 Alpha  occ. eigenvalues --  -88.87649 -88.87495 -24.74177 -24.74132 -24.74009
 Alpha  occ. eigenvalues --  -24.73986 -24.73946 -24.73810 -24.73799 -24.73749
 Alpha  occ. eigenvalues --  -24.73731 -24.73725 -24.73685 -24.73675 -24.73593
 Alpha  occ. eigenvalues --  -24.73560 -24.73517 -19.21314 -14.36910 -14.36844
 Alpha  occ. eigenvalues --  -14.35983 -14.35966 -10.32014 -10.31956 -10.31774
 Alpha  occ. eigenvalues --  -10.31750 -10.31627 -10.31518 -10.31516 -10.31441
 Alpha  occ. eigenvalues --  -10.31439 -10.31394 -10.31388 -10.31342 -10.31289
 Alpha  occ. eigenvalues --  -10.31264 -10.31218 -10.29760 -10.24900 -10.24849
 Alpha  occ. eigenvalues --  -10.24777 -10.24747 -10.24709 -10.24703 -10.24668
 Alpha  occ. eigenvalues --  -10.24194 -10.24190 -10.23349 -10.23339 -10.22510
 Alpha  occ. eigenvalues --  -10.22407 -10.22141 -10.22130 -10.22074 -10.20964
 Alpha  occ. eigenvalues --  -10.20924 -10.20821 -10.20814 -10.20761 -10.20719
 Alpha  occ. eigenvalues --  -10.20015 -10.19731 -10.19123 -10.19072 -10.18961
 Alpha  occ. eigenvalues --  -10.18926 -10.18924 -10.18832  -7.95249  -7.95085
 Alpha  occ. eigenvalues --   -5.91600  -5.91437  -5.91194  -5.91034  -5.90829
 Alpha  occ. eigenvalues --   -5.90656  -4.04514  -2.66300  -2.66227  -2.60618
 Alpha  occ. eigenvalues --   -1.26369  -1.26325  -1.26148  -1.25765  -1.25705
 Alpha  occ. eigenvalues --   -1.25558  -1.25280  -1.25236  -1.25073  -1.24514
 Alpha  occ. eigenvalues --   -1.24457  -1.24317  -1.24124  -1.24087  -1.23911
 Alpha  occ. eigenvalues --   -1.09134  -0.98598  -0.97415  -0.96657  -0.94787
 Alpha  occ. eigenvalues --   -0.91675  -0.91590  -0.91067  -0.86277  -0.86234
 Alpha  occ. eigenvalues --   -0.85957  -0.84773  -0.82656  -0.79878  -0.79575
 Alpha  occ. eigenvalues --   -0.79280  -0.79239  -0.79204  -0.79152  -0.78843
 Alpha  occ. eigenvalues --   -0.78413  -0.78153  -0.77289  -0.75315  -0.74125
 Alpha  occ. eigenvalues --   -0.72192  -0.71602  -0.71395  -0.70832  -0.68715
 Alpha  occ. eigenvalues --   -0.68391  -0.67787  -0.67130  -0.67089  -0.66885
 Alpha  occ. eigenvalues --   -0.66462  -0.65798  -0.61690  -0.61152  -0.60646
 Alpha  occ. eigenvalues --   -0.60304  -0.60045  -0.59865  -0.59624  -0.59585
 Alpha  occ. eigenvalues --   -0.59284  -0.59162  -0.58926  -0.57945  -0.57812
 Alpha  occ. eigenvalues --   -0.57775  -0.57550  -0.56471  -0.55757  -0.55296
 Alpha  occ. eigenvalues --   -0.55228  -0.55193  -0.55065  -0.54961  -0.54624
 Alpha  occ. eigenvalues --   -0.54598  -0.54463  -0.54425  -0.53704  -0.53583
 Alpha  occ. eigenvalues --   -0.52887  -0.52815  -0.52608  -0.52548  -0.52359
 Alpha  occ. eigenvalues --   -0.52275  -0.52038  -0.51826  -0.50794  -0.50548
 Alpha  occ. eigenvalues --   -0.49839  -0.49776  -0.49633  -0.48835  -0.48790
 Alpha  occ. eigenvalues --   -0.48619  -0.48041  -0.47568  -0.47215  -0.47033
 Alpha  occ. eigenvalues --   -0.46975  -0.46868  -0.46793  -0.46722  -0.46470
 Alpha  occ. eigenvalues --   -0.46414  -0.46293  -0.45745  -0.45351  -0.44668
 Alpha  occ. eigenvalues --   -0.44613  -0.44488  -0.44373  -0.44191  -0.44155
 Alpha  occ. eigenvalues --   -0.44006  -0.43650  -0.43486  -0.43311  -0.42684
 Alpha  occ. eigenvalues --   -0.42386  -0.42253  -0.42202  -0.42042  -0.42007
 Alpha  occ. eigenvalues --   -0.41897  -0.41068  -0.40921  -0.40331  -0.40141
 Alpha  occ. eigenvalues --   -0.40056  -0.39812  -0.39419  -0.39212  -0.39163
 Alpha  occ. eigenvalues --   -0.39000  -0.38968  -0.38377  -0.37769  -0.37679
 Alpha  occ. eigenvalues --   -0.37410  -0.37132  -0.36417  -0.36405  -0.36151
 Alpha  occ. eigenvalues --   -0.35811  -0.35728  -0.35088  -0.34243  -0.34099
 Alpha  occ. eigenvalues --   -0.33154  -0.32143  -0.31629  -0.31386  -0.30384
 Alpha  occ. eigenvalues --   -0.29869  -0.28927  -0.28492  -0.28164  -0.27871
 Alpha  occ. eigenvalues --   -0.27757  -0.27432  -0.26972  -0.26914  -0.26840
 Alpha  occ. eigenvalues --   -0.26643  -0.25125  -0.24925  -0.24896  -0.22786
 Alpha  occ. eigenvalues --   -0.22633  -0.21643  -0.21607  -0.20862  -0.19538
 Alpha virt. eigenvalues --   -0.11239  -0.09303  -0.05145  -0.04906  -0.04141
 Alpha virt. eigenvalues --   -0.04045  -0.03799  -0.03296  -0.03225  -0.03071
 Alpha virt. eigenvalues --   -0.00974  -0.00875  -0.00642  -0.00387  -0.00334
 Alpha virt. eigenvalues --    0.01445   0.02155   0.02747   0.03125   0.03943
 Alpha virt. eigenvalues --    0.04066   0.04456   0.04636   0.04914   0.05651
 Alpha virt. eigenvalues --    0.06380   0.06864   0.07105   0.07378   0.07813
 Alpha virt. eigenvalues --    0.08607   0.09231   0.09271   0.09746   0.10455
 Alpha virt. eigenvalues --    0.11031   0.11184   0.11459   0.11767   0.11800
 Alpha virt. eigenvalues --    0.11984   0.12158   0.12420   0.12536   0.12652
[...]
 Alpha virt. eigenvalues --    0.48485   0.49894   0.49996   0.50271   0.50583
 Alpha virt. eigenvalues --    0.50755   0.50835   0.50989   0.51152   0.51399
 Alpha virt. eigenvalues --    0.51699   0.51962   0.52088   0.52358   0.52549
 Alpha virt. eigenvalues --    0.52741   0.52966   0.53311   0.53518   0.53757
 Alpha virt. eigenvalues --    0.54171   0.54571   0.54651   0.54687   0.54857
 Alpha virt. eigenvalues --    0.55152   0.55424   0.55917   0.56029   0.56314
 Alpha virt. eigenvalues --    0.56354   0.56505   0.56794   0.56986   0.57131
 Alpha virt. eigenvalues --    0.57295   0.57606   0.57982   0.58247   0.58529
 Alpha virt. eigenvalues --    0.58686   0.58950   0.59013   0.59242   0.60126
 Alpha virt. eigenvalues --    0.60520   0.60738   0.61008   0.61056   0.61285
 Alpha virt. eigenvalues --    0.61434   0.61531   0.61809   0.62402   0.62647
 Alpha virt. eigenvalues --    0.62690   0.63008   0.63192   0.63269   0.64047
 Alpha virt. eigenvalues --    0.64300   0.64370   0.64604   0.64840   0.65349
 Alpha virt. eigenvalues --    0.65603   0.65674   0.65853   0.66186   0.66428
 Alpha virt. eigenvalues --    0.66753   0.67281   0.67662   0.68320   0.68849
 Alpha virt. eigenvalues --    0.69192   0.70565   0.71101   0.71412   0.71945
 Alpha virt. eigenvalues --    0.72215   0.72614   0.72918   0.73651   0.74091
 Alpha virt. eigenvalues --    0.74891   0.75267   0.75991   0.76616   0.77083
 Alpha virt. eigenvalues --    0.77165   0.78145   0.78592   0.78802   0.78910
 Alpha virt. eigenvalues --    0.79534   0.79860   0.80088   0.80519   0.80617
 Alpha virt. eigenvalues --    0.80922   0.81211   0.81312   0.81506   0.81827
 Alpha virt. eigenvalues --    0.82044   0.82131   0.82346   0.82437   0.82681
 Alpha virt. eigenvalues --    0.83037   0.83368   0.83549   0.83846   0.84001
 Alpha virt. eigenvalues --    0.84379   0.84668   0.84985   0.85504   0.85961
 Alpha virt. eigenvalues --    0.86085   0.86432   0.86661   0.86730   0.87456
 Alpha virt. eigenvalues --    0.87848   0.88224   0.88918   0.89153   0.89749
 Alpha virt. eigenvalues --    0.90171   0.90770   0.91148   0.91638   0.92109
 Alpha virt. eigenvalues --    0.92425   0.93199   0.93756   0.94076   0.94361
 Alpha virt. eigenvalues --    0.94658   0.94741   0.95225   0.95679   0.96328
 Alpha virt. eigenvalues --    0.96946   0.97615   0.98287   0.98299   0.98771
 Alpha virt. eigenvalues --    0.99489   0.99725   0.99963   1.00529   1.01075
 Alpha virt. eigenvalues --    1.01233   1.02250   1.02454   1.02775   1.03159
 Alpha virt. eigenvalues --    1.03772   1.04107   1.04718   1.05101   1.05274
 Alpha virt. eigenvalues --    1.05778   1.05899   1.06280   1.07280   1.07700
 Alpha virt. eigenvalues --    1.08265   1.09158   1.09741   1.10254   1.10411
 Alpha virt. eigenvalues --    1.10659   1.11016   1.11148   1.11707   1.12049
 Alpha virt. eigenvalues --    1.12654   1.13096   1.13845   1.14305   1.14530
 Alpha virt. eigenvalues --    1.15088   1.15374   1.15804   1.16285   1.16929
 Alpha virt. eigenvalues --    1.17071   1.17490   1.18195   1.18493   1.18657
 Alpha virt. eigenvalues --    1.18967   1.19404   1.19686   1.20023   1.20261
 Alpha virt. eigenvalues --    1.20372   1.20891   1.21110   1.21544   1.21696
 Alpha virt. eigenvalues --    1.22109   1.22310   1.22544   1.22861   1.23028
 Alpha virt. eigenvalues --    1.23130   1.23322   1.23396   1.23539   1.23969
 Alpha virt. eigenvalues --    1.24143   1.24518   1.24966   1.25707   1.26587
 Alpha virt. eigenvalues --    1.26631   1.27185   1.27255   1.28120   1.28480
 Alpha virt. eigenvalues --    1.28864   1.29433   1.29825   1.30082   1.30298
 Alpha virt. eigenvalues --    1.30441   1.30959   1.31079   1.31214   1.31426
 Alpha virt. eigenvalues --    1.31818   1.31920   1.32382   1.33427   1.33876
 Alpha virt. eigenvalues --    1.34170   1.34288   1.34646   1.34919   1.35219
 Alpha virt. eigenvalues --    1.35498   1.35712   1.35969   1.36129   1.36392
 Alpha virt. eigenvalues --    1.36699   1.36884   1.37144   1.37670   1.37961
 Alpha virt. eigenvalues --    1.38279   1.38389   1.38442   1.38574   1.38804
 Alpha virt. eigenvalues --    1.39095   1.39432   1.39922   1.40285   1.40370
 Alpha virt. eigenvalues --    1.41259   1.41417   1.41713   1.41909   1.42244
 Alpha virt. eigenvalues --    1.42564   1.43216   1.43417   1.43675   1.43956
 Alpha virt. eigenvalues --    1.44568   1.44926   1.45004   1.45065   1.46143
 Alpha virt. eigenvalues --    1.46235   1.46666   1.46755   1.47241   1.48161
 Alpha virt. eigenvalues --    1.48905   1.49507   1.49837   1.51409   1.52055
 Alpha virt. eigenvalues --    1.52534   1.52962   1.53088   1.53465   1.54218
 Alpha virt. eigenvalues --    1.54920   1.55615   1.57262   1.57606   1.58676
 Alpha virt. eigenvalues --    1.59627   1.60599   1.61269   1.61653   1.61978
 Alpha virt. eigenvalues --    1.62332   1.63265   1.63506   1.63810   1.64170
 Alpha virt. eigenvalues --    1.64743   1.64934   1.65786   1.66504   1.67209
 Alpha virt. eigenvalues --    1.67601   1.67914   1.69017   1.69618   1.69648
 Alpha virt. eigenvalues --    1.69781   1.70156   1.70450   1.70807   1.71584
 Alpha virt. eigenvalues --    1.71843   1.72062   1.73096   1.73465   1.73795
 Alpha virt. eigenvalues --    1.74024   1.74275   1.74616   1.75062   1.75596
 Alpha virt. eigenvalues --    1.75799   1.75916   1.76128   1.76222   1.76326
 Alpha virt. eigenvalues --    1.76381   1.76495   1.76614   1.76676   1.76812
 Alpha virt. eigenvalues --    1.76876   1.77026   1.77149   1.77326   1.77805
 Alpha virt. eigenvalues --    1.77979   1.78246   1.78459   1.78524   1.78830
 Alpha virt. eigenvalues --    1.79340   1.79747   1.80352   1.81180   1.81228
 Alpha virt. eigenvalues --    1.81456   1.81649   1.81824   1.81882   1.82011
 Alpha virt. eigenvalues --    1.82243   1.82537   1.83005   1.83313   1.84060
 Alpha virt. eigenvalues --    1.84812   1.85425   1.85443   1.85578   1.85844
 Alpha virt. eigenvalues --    1.85947   1.86210   1.86228   1.86375   1.86596
 Alpha virt. eigenvalues --    1.86725   1.86981   1.87313   1.87577   1.87766
 Alpha virt. eigenvalues --    1.88116   1.88618   1.88745   1.89808   1.90093
 Alpha virt. eigenvalues --    1.90865   1.91636   1.91954   1.92453   1.92821
 Alpha virt. eigenvalues --    1.93140   1.94449   1.94813   1.95198   1.95384
 Alpha virt. eigenvalues --    1.95889   1.96107   1.96284   1.96521   1.96668
 Alpha virt. eigenvalues --    1.97158   1.97414   1.97793   1.98698   1.99227
 Alpha virt. eigenvalues --    1.99856   2.00386   2.01355   2.02003   2.02284
 Alpha virt. eigenvalues --    2.03133   2.03687   2.04291   2.04831   2.05312
 Alpha virt. eigenvalues --    2.05370   2.05766   2.05975   2.06095   2.06197
 Alpha virt. eigenvalues --    2.06880   2.07349   2.07769   2.08288   2.08533
 Alpha virt. eigenvalues --    2.09037   2.09547   2.09896   2.10034   2.11022
 Alpha virt. eigenvalues --    2.11520   2.12154   2.13311   2.13622   2.14487
 Alpha virt. eigenvalues --    2.14998   2.15408   2.15971   2.16257   2.16367
 Alpha virt. eigenvalues --    2.16717   2.16870   2.16957   2.17294   2.17428
 Alpha virt. eigenvalues --    2.17647   2.18030   2.18799   2.19567   2.20228
 Alpha virt. eigenvalues --    2.20850   2.21021   2.21253   2.21292   2.21452
 Alpha virt. eigenvalues --    2.23044   2.23654   2.23888   2.24057   2.24224
 Alpha virt. eigenvalues --    2.24776   2.24943   2.25042   2.25640   2.26117
 Alpha virt. eigenvalues --    2.26575   2.27030   2.27838   2.28133   2.28571
 Alpha virt. eigenvalues --    2.28730   2.28890   2.29095   2.29241   2.29926
 Alpha virt. eigenvalues --    2.30360   2.30830   2.31959   2.32238   2.32553
 Alpha virt. eigenvalues --    2.32576   2.32589   2.33132   2.33298   2.33484
 Alpha virt. eigenvalues --    2.33746   2.33810   2.34062   2.34748   2.35101
 Alpha virt. eigenvalues --    2.35956   2.36158   2.36201   2.36478   2.36521
 Alpha virt. eigenvalues --    2.36858   2.36933   2.37374   2.38110   2.38704
 Alpha virt. eigenvalues --    2.38938   2.39498   2.39866   2.40425   2.40680
 Alpha virt. eigenvalues --    2.40997   2.41937   2.42121   2.42584   2.42665
 Alpha virt. eigenvalues --    2.43392   2.43532   2.44305   2.44885   2.45252
 Alpha virt. eigenvalues --    2.46283   2.46660   2.46988   2.47719   2.48122
 Alpha virt. eigenvalues --    2.49057   2.49071   2.49775   2.50691   2.50852
 Alpha virt. eigenvalues --    2.51036   2.51180   2.51647   2.51994   2.52261
 Alpha virt. eigenvalues --    2.52662   2.53360   2.53609   2.54157   2.54419
 Alpha virt. eigenvalues --    2.54599   2.55071   2.55240   2.55369   2.55421
 Alpha virt. eigenvalues --    2.55708   2.56194   2.56698   2.56822   2.57545
 Alpha virt. eigenvalues --    2.58168   2.58695   2.58977   2.60095   2.60660
 Alpha virt. eigenvalues --    2.61119   2.62111   2.62380   2.63464   2.63575
 Alpha virt. eigenvalues --    2.64454   2.65087   2.65714   2.65820   2.66286
 Alpha virt. eigenvalues --    2.68318   2.68700   2.69282   2.69972   2.71085
 Alpha virt. eigenvalues --    2.71722   2.72519   2.72868   2.73325   2.73818
 Alpha virt. eigenvalues --    2.74157   2.74923   2.74979   2.75347   2.75677
 Alpha virt. eigenvalues --    2.75834   2.77685   2.78070   2.78358   2.79620
 Alpha virt. eigenvalues --    2.80724   2.81151   2.81287   2.81636   2.82342
 Alpha virt. eigenvalues --    2.84188   2.84719   2.86519   2.86849   2.87613
 Alpha virt. eigenvalues --    2.88390   2.88914   2.89448   2.91521   2.92313
 Alpha virt. eigenvalues --    2.94234   2.94775   2.94951   2.95535   2.96048
 Alpha virt. eigenvalues --    2.97003   2.97736   2.97830   2.98000   2.98582
 Alpha virt. eigenvalues --    2.99538   3.00350   3.01307   3.04370   3.04769
 Alpha virt. eigenvalues --    3.05571   3.05627   3.07004   3.07651   3.08474
 Alpha virt. eigenvalues --    3.08869   3.09198   3.10390   3.10540   3.10951
 Alpha virt. eigenvalues --    3.11281   3.11691   3.13907   3.14662   3.15082
 Alpha virt. eigenvalues --    3.15308   3.15717   3.15754   3.15904   3.16387
 Alpha virt. eigenvalues --    3.17359   3.19959   3.21350   3.22858   3.26187
 Alpha virt. eigenvalues --    3.28320   3.32214   3.35704   3.36649   3.37071
 Alpha virt. eigenvalues --    3.37301   3.37478   3.38294   3.38533   3.39394
 Alpha virt. eigenvalues --    3.41480   3.49564   3.49836   3.49893   3.58439
 Alpha virt. eigenvalues --    3.60550   3.61249   3.74544   3.76058   3.76382
 Alpha virt. eigenvalues --    3.78215  12.77778
          Condensed to atoms (all electrons):
 Mulliken charges:
               1
     1  C    0.274277
     2  C    0.302530
     3  C   -0.101686
     4  C    0.294187
     5  C    0.285961
     6  C    0.069233
     7  C    0.259853
     8  C    0.302452
     9  C   -0.110675
    10  C    0.290264
    11  C   -0.139764
    12  C    0.295291
    13  H    0.107983
    14  H    0.101985
    15  H    0.102739
    16  N   -0.618783
    17  N   -0.616622
    18  N   -0.609419
    19  N   -0.611503
    20  C   -0.109965
    21  H    0.101405
    22  C   -0.131230
    23  H    0.101485
    24  C    0.101935
    25  C   -0.101797
    26  H    0.101963
    27  C    0.208387
    28  C    0.009703
    29  C    0.009678
    30  C   -0.003219
    31  C   -0.236653
    32  C    0.346714
    33  C    0.349525
    34  C    0.275459
    35  C    0.275131
    36  C    0.289383
    37  C   -0.241220
    38  C    0.349643
    39  C    0.345944
    40  C    0.275569
    41  C    0.274404
    42  C    0.289014
    43  C   -0.249736
    44  C    0.349623
    45  C    0.352174
    46  C    0.274755
    47  C    0.275689
    48  C    0.289653
    49  Ni   0.531750
    50  C   -0.340933
    51  C   -0.051616
    52  H    0.124444
    53  C   -0.218933
    54  C   -0.060689
    55  H    0.095683
    56  F   -0.283730
    57  F   -0.286336
    58  F   -0.282259
    59  F   -0.286039
    60  F   -0.285601
    61  F   -0.282357
    62  F   -0.285784
    63  F   -0.282427
    64  F   -0.286688
    65  F   -0.286759
    66  F   -0.285804
    67  F   -0.286248
    68  F   -0.282270
    69  F   -0.285672
    70  F   -0.282809
    71  H    0.095865
    72  H    0.109920
    73  C   -0.054997
    74  C   -0.066554
    75  C   -0.283932
    76  H    0.138024
    77  S    0.273310
    78  S    0.271465
    79  C   -0.289033
    80  H    0.126425
    81  O   -0.514020
    82  H    0.332887
 Sum of Mulliken charges =   0.00000
 Mulliken charges with hydrogens summed into heavy atoms:
               1
     1  C    0.274277
     2  C    0.302530
     3  C    0.001052
     4  C    0.294187
     5  C    0.285961
     6  C    0.069233
     7  C    0.259853
     8  C    0.302452
     9  C   -0.008691
    10  C    0.290264
    11  C   -0.031780
    12  C    0.295291
    16  N   -0.618783
    17  N   -0.616622
    18  N   -0.609419
    19  N   -0.611503
    20  C   -0.008560
    22  C   -0.029745
    24  C    0.101935
    25  C    0.000166
    27  C    0.208387
    28  C    0.009703
    29  C    0.009678
    30  C   -0.003219
    31  C   -0.236653
    32  C    0.346714
    33  C    0.349525
    34  C    0.275459
    35  C    0.275131
    36  C    0.289383
    37  C   -0.241220
    38  C    0.349643
    39  C    0.345944
    40  C    0.275569
    41  C    0.274404
    42  C    0.289014
    43  C   -0.249736
    44  C    0.349623
    45  C    0.352174
    46  C    0.274755
    47  C    0.275689
    48  C    0.289653
    49  Ni   0.531750
    50  C   -0.340933
    51  C    0.058304
    53  C   -0.218933
    54  C    0.035177
    56  F   -0.283730
    57  F   -0.286336
    58  F   -0.282259
    59  F   -0.286039
    60  F   -0.285601
    61  F   -0.282357
    62  F   -0.285784
    63  F   -0.282427
    64  F   -0.286688
    65  F   -0.286759
    66  F   -0.285804
    67  F   -0.286248
    68  F   -0.282270
    69  F   -0.285672
    70  F   -0.282809
    73  C    0.040686
    74  C    0.057890
    75  C   -0.145908
    77  S    0.273310
    78  S    0.271465
    79  C   -0.162608
    81  O   -0.181133
 Electronic spatial extent (au):  <R**2>=          65368.4367
 Charge=              0.0000 electrons
 Dipole moment (field-independent basis, Debye):
    X=             -1.1123    Y=             -4.0373    Z=              0.1433  Tot=              4.1902
 Quadrupole moment (field-independent basis, Debye-Ang):
   XX=           -394.4749   YY=           -352.9534   ZZ=           -408.2948
   XY=              7.3293   XZ=              6.8677   YZ=              7.2168
 Traceless Quadrupole moment (field-independent basis, Debye-Ang):
   XX=             -9.2339   YY=             32.2876   ZZ=            -23.0537
   XY=              7.3293   XZ=              6.8677   YZ=              7.2168
 Octapole moment (field-independent basis, Debye-Ang**2):
  XXX=             -6.6315  YYY=           -252.9934  ZZZ=             17.7667  XYY=            -52.7727
  XXY=             10.8593  XXZ=             -9.6994  XZZ=              3.0628  YZZ=             30.6878
  YYZ=            -12.0667  XYZ=              9.4920
 Hexadecapole moment (field-independent basis, Debye-Ang**3):
 XXXX=         -41288.6552 YYYY=         -34031.8523 ZZZZ=          -5234.6442 XXXY=            152.5068
 XXXZ=            104.2582 YYYX=            285.4711 YYYZ=            192.3861 ZZZX=              9.7101
 ZZZY=           -109.9683 XXYY=         -11371.6290 XXZZ=          -7752.4747 YYZZ=          -6853.1617
 XXYZ=            193.0042 YYXZ=            180.8151 ZZXY=            -42.9785
 N-N= 1.172684161923D+04 E-N=-3.409770088956D+04  KE= 4.432139756160D+03
 Unable to Open any file for archive entry.
 1\1\GINC-CCNN227\FOpt\RB3LYP\GenECP\C46H13F15N4Ni1O1S2\CPI\26-Oct-2021
 \0\\# opt b3lyp/genecp geom=connectivity scf=maxcyc=1000\\title\\0,1\C
 ,1.293248794,-0.5325024818,-4.1994211448\C,-1.3287533098,2.808505563,0
 .0149148596\C,-3.3621366389,3.3797588758,-0.7600452195\C,-2.6596943743
 ,2.5500407576,-1.7107872345\C,-2.5971171522,1.0154527818,-3.6092063104
 \C,-2.4263129636,-0.805400533,-4.9471555169\C,-1.1740642812,-0.5155238
 556,-4.2707202815\C,1.0609187994,2.4738837995,0.3521366058\C,2.2990871
 112,2.7537518471,1.0426843114\C,2.7766332627,0.6474187649,-3.093337336
 4\C,3.4956398001,-0.1086092473,-4.064435246\C,2.6914670671,1.926734962
 6,-1.0111672955\H,4.5646170709,-0.0874137837,-4.2156551744\H,2.3772896
 208,3.1527922228,2.0427368029\H,-4.3512108952,3.7887256117,-0.90178346
 8\N,-1.3105890838,0.5779383997,-3.4385586316\N,1.4293581874,0.40895130
 23,-3.2018157876\N,-1.4023210068,2.2345431473,-1.2285284881\N,1.314909
 3439,1.9412639241,-0.8886166176\C,-2.559980177,3.4980694275,0.32564567
 72\H,-2.7554754986,4.0344428591,1.2423660362\C,-3.280774496,0.19603635
 93,-4.5549827509\H,-4.3157246276,0.2995671555,-4.8444644026\C,2.585550
 6855,-0.864199517,-4.7612152483\C,3.3037214588,2.4612271441,0.18234913
 59\H,4.3660728823,2.5710577128,0.3409455119\C,0.0622152726,-1.08603529
 55,-4.5904621876\C,3.3946454147,1.401617653,-2.0814006771\C,-3.2220067
 828,2.0319956371,-2.8651317184\C,-0.1967692025,2.8416910284,0.82983235
 97\C,-4.5845508512,2.4699003068,-3.2856433461\C,-5.7388331482,2.104773
 179,-2.5842440821\C,-4.7588599633,3.2519938301,-4.4331363432\C,-7.0085
 895106,2.5080315753,-2.992078812\C,-6.0182716028,3.6631590997,-4.86281
 48453\C,-7.1471828414,3.2892427312,-4.1371124594\C,-0.3275197016,3.399
 6792515,2.2073528538\C,-0.9409700424,2.658682778,3.2238899046\C,0.1303
 358886,4.6787939662,2.5421938174\C,-1.0893486982,3.1582037098,4.515979
 1938\C,-0.0017375925,5.1977210796,3.8282065657\C,-0.61609736,4.4331468
 322,4.8177318832\C,4.8804282494,1.5445305193,-2.1196323801\C,5.7213615
 4,0.7722910218,-1.3119487717\C,5.4910000968,2.4549956436,-2.9885653717
 \C,7.1078328803,0.9023943412,-1.3541987619\C,6.8751911666,2.59928016,-
 3.0524462892\C,7.6852151795,1.8192487775,-2.2300176699\Ni,0.0081411461
 ,1.2889103145,-2.1849634833\C,2.9239671132,-1.7837976084,-5.8537599221
 \C,3.0956533132,-2.8266070387,-7.9505291175\H,1.6648260361,-1.18695390
 51,-7.5151347192\C,-2.8188104519,-1.8489423302,-5.8972453147\C,-3.9134
 912062,-2.8392029129,-7.722390087\H,-3.7000212953,-0.6441989237,-7.458
 8298619\F,-3.6939066489,3.630263907,-5.1517694389\F,-6.1501047895,4.41
 48804455,-5.9609973396\F,-8.3592009992,3.679218697,-4.5377870094\F,-8.
 0922659866,2.143919447,-2.2981846132\F,-5.644541672,1.3442627957,-1.48
 53893285\F,-1.4042432926,1.4288484437,2.9679980272\F,-1.6770823088,2.4
 23210625,5.4658938696\F,-0.7506627161,4.9217030372,6.0526563136\F,0.44
 79702923,6.4241532782,4.116053742\F,0.7174315276,5.4449055321,1.612467
 1428\F,5.1980008346,-0.1222214767,-0.4627719961\F,7.8854709332,0.15128
 36526,-0.5669330622\F,9.0125795882,1.9504213548,-2.2805013607\F,7.4290
 433718,3.4804930765,-3.8918143788\F,4.7392426993,3.2194719662,-3.79078
 66763\H,-4.447156114,-2.8657496598,-8.6656016388\H,2.8488619008,-3.013
 1322487,-8.9891863404\C,-3.5072830238,-1.6388117443,-7.0725169294\C,2.
 4431231709,-1.8460804903,-7.1470179524\C,4.0754525998,-3.4999017425,-7
 .2735004434\H,4.7181301961,-4.2900761225,-7.6366652991\S,4.2106679709,
 -2.9569739821,-5.6353095595\S,-2.6888225325,-3.5662364717,-5.577777213
 \C,-3.5495478442,-3.9603659739,-7.0268533028\H,-3.7209429771,-4.995986
 7995,-7.2871191962\O,0.0124669465,-2.1682359691,-5.391465472\H,0.90583
 79177,-2.456073039,-5.6454676876\\Version=ES64L-G16RevC.01\State=1-A\H
 F=-4518.1062625\RMSD=2.350e-09\RMSF=3.835e-06\Dipole=0.4725305,-0.8446
 972,-1.3345158\Quadrupole=-8.0367814,0.9305719,7.1062095,-8.2155718,-1
 .1705383,20.4030363\PG=C01 [X(C46H13F15N4Ni1O1S2)]\\@
 The archive entry for this job was punched.


 THE MORE POWERFUL THE METHOD, THE MORE CATASTROPHIC THE ERRORS.
     -- M.D. KAMEN
 Job cpu time:       1 days 22 hours 31 minutes 43.1 seconds.
 Elapsed time:       0 days  2 hours 54 minutes 58.9 seconds.
 File lengths (MBytes):  RWF=    649 Int=      0 D2E=      0 Chk=     83 Scr=      1
 Normal termination of Gaussian 16 at Tue Oct 26 19:56:57 2021.
