 Entering Gaussian System, Link 0=/local/apl/lx/g16c01/g16/._.g16
 Initial command:
 /local/apl/lx/g16c01/g16/l1.exe "/work/users/cpi/4904764.cccms1/Gau-220681.inp" -scrdir="/work/users/cpi/4904764.cccms1/"
 Default CPUs for threads: 0,1,2,3,4,5,6,7,8,9,10,11,12,13,14,15,16,17
 Default is to use a total of  18 processors:
                               18 via shared-memory
                                1 via Linda
 Entering Link 1 = /local/apl/lx/g16c01/g16/l1.exe PID=    220682.
  
 Copyright (c) 1988-2019, Gaussian, Inc.  All Rights Reserved.
  
 This is part of the Gaussian(R) 16 program.  It is based on
 the Gaussian(R) 09 system (copyright 2009, Gaussian, Inc.),
 the Gaussian(R) 03 system (copyright 2003, Gaussian, Inc.),
 the Gaussian(R) 98 system (copyright 1998, Gaussian, Inc.),
 the Gaussian(R) 94 system (copyright 1995, Gaussian, Inc.),
 the Gaussian 92(TM) system (copyright 1992, Gaussian, Inc.),
 the Gaussian 90(TM) system (copyright 1990, Gaussian, Inc.),
 the Gaussian 88(TM) system (copyright 1988, Gaussian, Inc.),
 the Gaussian 86(TM) system (copyright 1986, Carnegie Mellon
 University), and the Gaussian 82(TM) system (copyright 1983,
 Carnegie Mellon University). Gaussian is a federally registered
 trademark of Gaussian, Inc.
  
 This software contains proprietary and confidential information,
 including trade secrets, belonging to Gaussian, Inc.
  
 This software is provided under written license and may be
 used, copied, transmitted, or stored only in accord with that
 written license.
  
 The following legend is applicable only to US Government
 contracts under FAR:
  
                    RESTRICTED RIGHTS LEGEND
  
 Use, reproduction and disclosure by the US Government is
 subject to restrictions as set forth in subparagraphs (a)
 and (c) of the Commercial Computer Software - Restricted
 Rights clause in FAR 52.227-19.
  
 Gaussian, Inc.
 340 Quinnipiac St., Bldg. 40, Wallingford CT 06492
  
  
 ---------------------------------------------------------------
 Warning -- This program may not be used in any manner that
 competes with the business of Gaussian, Inc. or will provide
 assistance to any competitor of Gaussian, Inc.  The licensee
 of this program is prohibited from giving any competitor of
 Gaussian, Inc. access to this program.  By using this program,
 the user acknowledges that Gaussian, Inc. is engaged in the
 business of creating and licensing software in the field of
 computational chemistry and represents and warrants to the
 licensee that it is not a competitor of Gaussian, Inc. and that
 it will not use this program in any manner prohibited above.
 ---------------------------------------------------------------
  

 Cite this work as:
 Gaussian 16, Revision C.01,
 M. J. Frisch, G. W. Trucks, H. B. Schlegel, G. E. Scuseria, 
 M. A. Robb, J. R. Cheeseman, G. Scalmani, V. Barone, 
 G. A. Petersson, H. Nakatsuji, X. Li, M. Caricato, A. V. Marenich, 
 J. Bloino, B. G. Janesko, R. Gomperts, B. Mennucci, H. P. Hratchian, 
 J. V. Ortiz, A. F. Izmaylov, J. L. Sonnenberg, D. Williams-Young, 
 F. Ding, F. Lipparini, F. Egidi, J. Goings, B. Peng, A. Petrone, 
 T. Henderson, D. Ranasinghe, V. G. Zakrzewski, J. Gao, N. Rega, 
 G. Zheng, W. Liang, M. Hada, M. Ehara, K. Toyota, R. Fukuda, 
 J. Hasegawa, M. Ishida, T. Nakajima, Y. Honda, O. Kitao, H. Nakai, 
 T. Vreven, K. Throssell, J. A. Montgomery, Jr., J. E. Peralta, 
 F. Ogliaro, M. J. Bearpark, J. J. Heyd, E. N. Brothers, K. N. Kudin, 
 V. N. Staroverov, T. A. Keith, R. Kobayashi, J. Normand, 
 K. Raghavachari, A. P. Rendell, J. C. Burant, S. S. Iyengar, 
 J. Tomasi, M. Cossi, J. M. Millam, M. Klene, C. Adamo, R. Cammi, 
 J. W. Ochterski, R. L. Martin, K. Morokuma, O. Farkas, 
 J. B. Foresman, and D. J. Fox, Gaussian, Inc., Wallingford CT, 2019.
 
 ******************************************
 Gaussian 16:  ES64L-G16RevC.01  3-Jul-2019
                26-Oct-2021 
 ******************************************
 %mem=100GB
 %nprocshare=16
 Will use up to   16 processors via shared memory.
 %chk=Ni_3C6F5_Por_dithiophene_OH_2.chk
 ----------------------------------------------------
 # opt b3lyp/genecp geom=connectivity scf=maxcyc=1000
 ----------------------------------------------------
 1/18=20,19=15,26=3,38=1,57=2/1,3;
 2/9=110,12=2,17=6,18=5,40=1/2;
 3/5=7,11=2,16=1,17=8,25=1,30=1,71=1,74=-5/1,2,3;
 4//1;
 5/5=2,7=1000,38=5/2;
 6/7=2,8=2,9=2,10=2,28=1/1;
 7//1,2,3,16;
 1/18=20,19=15,26=3/3(2);
 2/9=110/2;
 99//99;
 2/9=110/2;
 3/5=7,6=1,11=2,16=1,17=8,25=1,30=1,71=1,74=-5,82=7/1,2,3;
 4/5=5,16=3,69=1/1;
 5/5=2,7=1000,38=5/2;
 7//1,2,3,16;
 1/18=20,19=15,26=3/3(-5);
 2/9=110/2;
 6/7=2,8=2,9=2,10=2,19=2,28=1/1;
 99/9=1/99;
 -----
 title
 -----
 Symbolic Z-matrix:
 Charge =  0 Multiplicity = 1
 C                    -2.68905  -1.85117  -1.40611 
 C                    -2.64335   3.8458   -0.8674 
 C                    -2.00756   4.87687  -2.87202 
 C                    -1.91225   3.36324  -2.95278 
 C                    -1.76088   1.32922  -4.04038 
 C                    -2.36945  -0.62755  -4.87268 
 C                    -2.65167  -0.63165  -3.51638 
 C                    -2.57655   2.70434   1.19863 
 C                    -2.45859   2.65792   2.73296 
 C                    -1.82763  -1.34541   0.57628 
 C                    -1.78705  -2.72744   0.45004 
 C                    -1.92198   0.61832   1.80355 
 H                    -1.36898  -3.42755   1.14026 
 H                    -2.68212   3.46158   3.39996 
 H                    -1.71913   5.57518  -3.62911 
 N                    -2.26988   0.5202   -2.95969 
 N                    -2.30129  -0.79741  -0.67566 
 N                    -2.32692   2.80746  -1.64364 
 N                    -2.28578   1.48964   0.66723 
 C                    -2.51693   5.16259  -1.66265 
 H                    -2.76331   6.1362   -1.30163 
 C                    -1.70604   0.54397  -5.17902 
 H                    -1.25808   0.7936   -6.11617 
 C                    -2.43062  -3.03262  -0.73371 
 C                    -2.01553   1.43906   3.08367 
 H                    -1.77347   1.10754   4.06963 
 C                    -3.24725  -1.78641  -2.78958 
 C                    -1.55549  -0.66283   1.72149 
 C                    -1.49652   2.66281  -4.01091 
 C                    -2.94628   3.82108   0.47498 
 C                    -0.77797   3.31493  -5.18993 
 C                    -1.54131   4.04135  -6.09488 
 C                     0.60802   3.18109  -5.36919 
 C                    -0.93964   4.59093  -7.2272 
 C                     1.22758   3.81458  -6.45476 
 C                     0.4481    4.49745  -7.39852 
 C                    -3.61407   5.02971   1.15893 
 C                    -4.99419   5.2734    1.00142 
 C                    -2.84154   5.88765   1.9402 
 C                    -5.59174   6.35561   1.66882 
 C                    -3.42307   7.01781   2.52768 
 C                    -4.8007    7.24041   2.41219 
 C                    -0.89283  -1.38482   2.8866 
 C                    -1.69256  -1.80632   3.94123 
 C                     0.48709  -1.62679   2.89139 
 C                    -1.12799  -2.5302    4.99152 
 C                     1.06955  -2.26711   3.99133 
 C                     0.25683  -2.7424    5.03002 
 Ni                   -2.31409   1.00383  -1.15933 
 C                    -2.74528  -4.44185  -1.21195 
 C                    -2.61443  -6.7932   -1.70491 
 H                    -1.26506  -5.64052  -0.19093 
 C                    -2.6748   -1.73244  -5.86906 
 C                    -3.7807   -3.46016  -7.12578 
 H                    -4.48014  -2.6125   -5.06812 
 F                     1.3504    2.48453  -4.47883 
 F                     2.5716    3.77577  -6.58764 
 F                     1.03223   5.06561  -8.47315 
 F                    -1.69996   5.20105  -8.15856 
 F                    -2.86955   4.16576  -5.89636 
 F                    -5.75443   4.44559   0.25089 
 F                    -6.9288    6.54082   1.60411 
 F                    -5.36479   8.30759   3.01732 
 F                    -2.65152   7.89893   3.19762 
 F                    -1.52218   5.64972   2.08845 
 F                    -3.01846  -1.55664   3.91634 
 F                    -1.92013  -3.03234   5.96054 
 F                     0.80665  -3.40432   6.06789 
 F                     2.41016  -2.41803   4.05645 
 F                     1.25907  -1.20546   1.86433 
 H                    -4.53508  -4.18941  -7.32773 
 H                    -2.23077  -7.78757  -1.62405 
 C                    -3.74402  -2.57698  -5.84833 
 C                    -2.0756   -5.58362  -0.89195 
 C                    -3.62351  -6.43742  -2.54879 
 H                    -4.06992  -7.07668  -3.27472 
 S                    -4.09643  -4.76399  -2.29516 
 S                    -1.61944  -2.0534   -7.24029 
 C                    -2.74684  -3.18616  -7.97045 
 H                    -2.62915  -3.5929   -8.94774 
 O                    -4.12521  -2.75637  -3.36685 
 H                    -5.0362   -2.49045  -3.22198 
 

 GradGradGradGradGradGradGradGradGradGradGradGradGradGradGradGradGradGrad
 Berny optimization.
 Initialization pass.
                           ----------------------------
                           !    Initial Parameters    !
                           ! (Angstroms and Degrees)  !
 --------------------------                            --------------------------
 ! Name  Definition              Value          Derivative Info.                !
 --------------------------------------------------------------------------------
 ! R1    R(1,17)                 1.3395         estimate D2E/DX2                !
 ! R2    R(1,24)                 1.3837         estimate D2E/DX2                !
 ! R3    R(1,27)                 1.4932         estimate D2E/DX2                !
 ! R4    R(2,18)                 1.3345         estimate D2E/DX2                !
 ! R5    R(2,20)                 1.5435         estimate D2E/DX2                !
 ! R6    R(2,30)                 1.3764         estimate D2E/DX2                !
 ! R7    R(3,4)                  1.5188         estimate D2E/DX2                !
 ! R8    R(3,15)                 1.0696         estimate D2E/DX2                !
 ! R9    R(3,20)                 1.343          estimate D2E/DX2                !
 ! R10   R(4,18)                 1.4814         estimate D2E/DX2                !
 ! R11   R(4,29)                 1.3353         estimate D2E/DX2                !
 ! R12   R(5,16)                 1.4427         estimate D2E/DX2                !
 ! R13   R(5,22)                 1.3842         estimate D2E/DX2                !
 ! R14   R(5,29)                 1.3599         estimate D2E/DX2                !
 ! R15   R(6,7)                  1.3854         estimate D2E/DX2                !
 ! R16   R(6,22)                 1.3807         estimate D2E/DX2                !
 ! R17   R(6,53)                 1.5188         estimate D2E/DX2                !
 ! R18   R(7,16)                 1.3351         estimate D2E/DX2                !
 ! R19   R(7,27)                 1.4888         estimate D2E/DX2                !
 ! R20   R(8,9)                  1.5395         estimate D2E/DX2                !
 ! R21   R(8,19)                 1.3574         estimate D2E/DX2                !
 ! R22   R(8,30)                 1.3811         estimate D2E/DX2                !
 ! R23   R(9,14)                 1.068          estimate D2E/DX2                !
 ! R24   R(9,25)                 1.3435         estimate D2E/DX2                !
 ! R25   R(10,11)                1.3884         estimate D2E/DX2                !
 ! R26   R(10,17)                1.4464         estimate D2E/DX2                !
 ! R27   R(10,28)                1.3607         estimate D2E/DX2                !
 ! R28   R(11,13)                1.0683         estimate D2E/DX2                !
 ! R29   R(11,24)                1.3815         estimate D2E/DX2                !
 ! R30   R(12,19)                1.4774         estimate D2E/DX2                !
 ! R31   R(12,25)                1.5235         estimate D2E/DX2                !
 ! R32   R(12,28)                1.3351         estimate D2E/DX2                !
 ! R33   R(16,49)                1.8647         estimate D2E/DX2                !
 ! R34   R(17,49)                1.8651         estimate D2E/DX2                !
 ! R35   R(18,49)                1.8676         estimate D2E/DX2                !
 ! R36   R(19,49)                1.8903         estimate D2E/DX2                !
 ! R37   R(20,21)                1.0672         estimate D2E/DX2                !
 ! R38   R(22,23)                1.0683         estimate D2E/DX2                !
 ! R39   R(24,50)                1.5211         estimate D2E/DX2                !
 ! R40   R(25,26)                1.068          estimate D2E/DX2                !
 ! R41   R(27,81)                1.43           estimate D2E/DX2                !
 ! R42   R(28,43)                1.5225         estimate D2E/DX2                !
 ! R43   R(29,31)                1.527          estimate D2E/DX2                !
 ! R44   R(30,37)                1.5409         estimate D2E/DX2                !
 ! R45   R(31,32)                1.389          estimate D2E/DX2                !
 ! R46   R(31,33)                1.4039         estimate D2E/DX2                !
 ! R47   R(32,34)                1.3951         estimate D2E/DX2                !
 ! R48   R(32,60)                1.3487         estimate D2E/DX2                !
 ! R49   R(33,35)                1.4013         estimate D2E/DX2                !
 ! R50   R(33,56)                1.3524         estimate D2E/DX2                !
 ! R51   R(34,36)                1.4014         estimate D2E/DX2                !
 ! R52   R(34,59)                1.3482         estimate D2E/DX2                !
 ! R53   R(35,36)                1.4016         estimate D2E/DX2                !
 ! R54   R(35,57)                1.3511         estimate D2E/DX2                !
 ! R55   R(36,58)                1.3486         estimate D2E/DX2                !
 ! R56   R(37,38)                1.4103         estimate D2E/DX2                !
 ! R57   R(37,39)                1.394          estimate D2E/DX2                !
 ! R58   R(38,40)                1.4049         estimate D2E/DX2                !
 ! R59   R(38,61)                1.3515         estimate D2E/DX2                !
 ! R60   R(39,41)                1.4002         estimate D2E/DX2                !
 ! R61   R(39,65)                1.3488         estimate D2E/DX2                !
 ! R62   R(40,42)                1.4004         estimate D2E/DX2                !
 ! R63   R(40,62)                1.3514         estimate D2E/DX2                !
 ! R64   R(41,42)                1.4003         estimate D2E/DX2                !
 ! R65   R(41,64)                1.3493         estimate D2E/DX2                !
 ! R66   R(42,63)                1.3503         estimate D2E/DX2                !
 ! R67   R(43,44)                1.3891         estimate D2E/DX2                !
 ! R68   R(43,45)                1.401          estimate D2E/DX2                !
 ! R69   R(44,46)                1.3949         estimate D2E/DX2                !
 ! R70   R(44,66)                1.3494         estimate D2E/DX2                !
 ! R71   R(45,47)                1.3997         estimate D2E/DX2                !
 ! R72   R(45,70)                1.3522         estimate D2E/DX2                !
 ! R73   R(46,48)                1.4015         estimate D2E/DX2                !
 ! R74   R(46,67)                1.3486         estimate D2E/DX2                !
 ! R75   R(47,48)                1.4019         estimate D2E/DX2                !
 ! R76   R(47,69)                1.3506         estimate D2E/DX2                !
 ! R77   R(48,68)                1.3482         estimate D2E/DX2                !
 ! R78   R(50,74)                1.3618         estimate D2E/DX2                !
 ! R79   R(50,77)                1.7615         estimate D2E/DX2                !
 ! R80   R(51,72)                1.0689         estimate D2E/DX2                !
 ! R81   R(51,74)                1.5538         estimate D2E/DX2                !
 ! R82   R(51,75)                1.3627         estimate D2E/DX2                !
 ! R83   R(52,74)                1.0731         estimate D2E/DX2                !
 ! R84   R(53,73)                1.3627         estimate D2E/DX2                !
 ! R85   R(53,78)                1.7598         estimate D2E/DX2                !
 ! R86   R(54,71)                1.0685         estimate D2E/DX2                !
 ! R87   R(54,73)                1.5535         estimate D2E/DX2                !
 ! R88   R(54,79)                1.3629         estimate D2E/DX2                !
 ! R89   R(55,73)                1.0733         estimate D2E/DX2                !
 ! R90   R(75,76)                1.0653         estimate D2E/DX2                !
 ! R91   R(75,77)                1.7574         estimate D2E/DX2                !
 ! R92   R(78,79)                1.7571         estimate D2E/DX2                !
 ! R93   R(79,80)                1.0651         estimate D2E/DX2                !
 ! R94   R(81,82)                0.96           estimate D2E/DX2                !
 ! A1    A(17,1,24)            110.6473         estimate D2E/DX2                !
 ! A2    A(17,1,27)            125.4021         estimate D2E/DX2                !
 ! A3    A(24,1,27)            123.8527         estimate D2E/DX2                !
 ! A4    A(18,2,20)            110.1629         estimate D2E/DX2                !
 ! A5    A(18,2,30)            127.2673         estimate D2E/DX2                !
 ! A6    A(20,2,30)            122.4022         estimate D2E/DX2                !
 ! A7    A(4,3,15)             126.5917         estimate D2E/DX2                !
 ! A8    A(4,3,20)             106.4821         estimate D2E/DX2                !
 ! A9    A(15,3,20)            126.9253         estimate D2E/DX2                !
 ! A10   A(3,4,18)             108.019          estimate D2E/DX2                !
 ! A11   A(3,4,29)             125.7631         estimate D2E/DX2                !
 ! A12   A(18,4,29)            126.2006         estimate D2E/DX2                !
 ! A13   A(16,5,22)            108.1809         estimate D2E/DX2                !
 ! A14   A(16,5,29)            127.033          estimate D2E/DX2                !
 ! A15   A(22,5,29)            124.5031         estimate D2E/DX2                !
 ! A16   A(7,6,22)             108.5179         estimate D2E/DX2                !
 ! A17   A(7,6,53)             126.8094         estimate D2E/DX2                !
 ! A18   A(22,6,53)            124.6314         estimate D2E/DX2                !
 ! A19   A(6,7,16)             110.3295         estimate D2E/DX2                !
 ! A20   A(6,7,27)             124.1765         estimate D2E/DX2                !
 ! A21   A(16,7,27)            125.453          estimate D2E/DX2                !
 ! A22   A(9,8,19)             110.2903         estimate D2E/DX2                !
 ! A23   A(9,8,30)             124.5462         estimate D2E/DX2                !
 ! A24   A(19,8,30)            125.1563         estimate D2E/DX2                !
 ! A25   A(8,9,14)             125.7092         estimate D2E/DX2                !
 ! A26   A(8,9,25)             108.2271         estimate D2E/DX2                !
 ! A27   A(14,9,25)            126.0611         estimate D2E/DX2                !
 ! A28   A(11,10,17)           107.9393         estimate D2E/DX2                !
 ! A29   A(11,10,28)           124.7526         estimate D2E/DX2                !
 ! A30   A(17,10,28)           127.152          estimate D2E/DX2                !
 ! A31   A(10,11,13)           127.2305         estimate D2E/DX2                !
 ! A32   A(10,11,24)           106.5102         estimate D2E/DX2                !
 ! A33   A(13,11,24)           126.2367         estimate D2E/DX2                !
 ! A34   A(19,12,25)           108.2653         estimate D2E/DX2                !
 ! A35   A(19,12,28)           125.8922         estimate D2E/DX2                !
 ! A36   A(25,12,28)           125.8361         estimate D2E/DX2                !
 ! A37   A(5,16,7)             105.8044         estimate D2E/DX2                !
 ! A38   A(5,16,49)            125.8828         estimate D2E/DX2                !
 ! A39   A(7,16,49)            128.2847         estimate D2E/DX2                !
 ! A40   A(1,17,10)            105.59           estimate D2E/DX2                !
 ! A41   A(1,17,49)            128.0487         estimate D2E/DX2                !
 ! A42   A(10,17,49)           126.3432         estimate D2E/DX2                !
 ! A43   A(2,18,4)             106.7675         estimate D2E/DX2                !
 ! A44   A(2,18,49)            127.0301         estimate D2E/DX2                !
 ! A45   A(4,18,49)            126.1257         estimate D2E/DX2                !
 ! A46   A(8,19,12)            106.2251         estimate D2E/DX2                !
 ! A47   A(8,19,49)            127.2351         estimate D2E/DX2                !
 ! A48   A(12,19,49)           126.5351         estimate D2E/DX2                !
 ! A49   A(2,20,3)             108.2714         estimate D2E/DX2                !
 ! A50   A(2,20,21)            125.8099         estimate D2E/DX2                !
 ! A51   A(3,20,21)            125.8929         estimate D2E/DX2                !
 ! A52   A(5,22,6)             106.2481         estimate D2E/DX2                !
 ! A53   A(5,22,23)            127.2756         estimate D2E/DX2                !
 ! A54   A(6,22,23)            126.4679         estimate D2E/DX2                !
 ! A55   A(1,24,11)            108.3468         estimate D2E/DX2                !
 ! A56   A(1,24,50)            126.8425         estimate D2E/DX2                !
 ! A57   A(11,24,50)           124.7798         estimate D2E/DX2                !
 ! A58   A(9,25,12)            106.8371         estimate D2E/DX2                !
 ! A59   A(9,25,26)            126.6819         estimate D2E/DX2                !
 ! A60   A(12,25,26)           126.4809         estimate D2E/DX2                !
 ! A61   A(1,27,7)             109.6579         estimate D2E/DX2                !
 ! A62   A(1,27,81)            125.0366         estimate D2E/DX2                !
 ! A63   A(7,27,81)            125.0756         estimate D2E/DX2                !
 ! A64   A(10,28,12)           118.569          estimate D2E/DX2                !
 ! A65   A(10,28,43)           119.5546         estimate D2E/DX2                !
 ! A66   A(12,28,43)           121.8379         estimate D2E/DX2                !
 ! A67   A(4,29,5)             118.1028         estimate D2E/DX2                !
 ! A68   A(4,29,31)            122.2994         estimate D2E/DX2                !
 ! A69   A(5,29,31)            119.5748         estimate D2E/DX2                !
 ! A70   A(2,30,8)             117.8158         estimate D2E/DX2                !
 ! A71   A(2,30,37)            120.9431         estimate D2E/DX2                !
 ! A72   A(8,30,37)            121.175          estimate D2E/DX2                !
 ! A73   A(29,31,32)           117.8905         estimate D2E/DX2                !
 ! A74   A(29,31,33)           121.4956         estimate D2E/DX2                !
 ! A75   A(32,31,33)           120.6117         estimate D2E/DX2                !
 ! A76   A(31,32,34)           119.8554         estimate D2E/DX2                !
 ! A77   A(31,32,60)           119.5748         estimate D2E/DX2                !
 ! A78   A(34,32,60)           120.5213         estimate D2E/DX2                !
 ! A79   A(31,33,35)           119.492          estimate D2E/DX2                !
 ! A80   A(31,33,56)           120.4608         estimate D2E/DX2                !
 ! A81   A(35,33,56)           120.0102         estimate D2E/DX2                !
 ! A82   A(32,34,36)           120.002          estimate D2E/DX2                !
 ! A83   A(32,34,59)           119.7194         estimate D2E/DX2                !
 ! A84   A(36,34,59)           120.2763         estimate D2E/DX2                !
 ! A85   A(33,35,36)           119.7349         estimate D2E/DX2                !
 ! A86   A(33,35,57)           120.1994         estimate D2E/DX2                !
 ! A87   A(36,35,57)           120.0642         estimate D2E/DX2                !
 ! A88   A(34,36,35)           120.0589         estimate D2E/DX2                !
 ! A89   A(34,36,58)           119.8815         estimate D2E/DX2                !
 ! A90   A(35,36,58)           120.0597         estimate D2E/DX2                !
 ! A91   A(30,37,38)           120.6676         estimate D2E/DX2                !
 ! A92   A(30,37,39)           119.4272         estimate D2E/DX2                !
 ! A93   A(38,37,39)           119.9052         estimate D2E/DX2                !
 ! A94   A(37,38,40)           119.7549         estimate D2E/DX2                !
 ! A95   A(37,38,61)           120.4416         estimate D2E/DX2                !
 ! A96   A(40,38,61)           119.7622         estimate D2E/DX2                !
 ! A97   A(37,39,41)           120.1154         estimate D2E/DX2                !
 ! A98   A(37,39,65)           119.6774         estimate D2E/DX2                !
 ! A99   A(41,39,65)           120.166          estimate D2E/DX2                !
 ! A100  A(38,40,42)           119.9083         estimate D2E/DX2                !
 ! A101  A(38,40,62)           120.2424         estimate D2E/DX2                !
 ! A102  A(42,40,62)           119.8476         estimate D2E/DX2                !
 ! A103  A(39,41,42)           120.1528         estimate D2E/DX2                !
 ! A104  A(39,41,64)           119.8634         estimate D2E/DX2                !
 ! A105  A(42,41,64)           119.9818         estimate D2E/DX2                !
 ! A106  A(40,42,41)           119.9381         estimate D2E/DX2                !
 ! A107  A(40,42,63)           120.0827         estimate D2E/DX2                !
 ! A108  A(41,42,63)           119.9791         estimate D2E/DX2                !
 ! A109  A(28,43,44)           118.3164         estimate D2E/DX2                !
 ! A110  A(28,43,45)           120.8797         estimate D2E/DX2                !
 ! A111  A(44,43,45)           120.8023         estimate D2E/DX2                !
 ! A112  A(43,44,46)           119.7428         estimate D2E/DX2                !
 ! A113  A(43,44,66)           119.706          estimate D2E/DX2                !
 ! A114  A(46,44,66)           120.5021         estimate D2E/DX2                !
 ! A115  A(43,45,47)           119.4444         estimate D2E/DX2                !
 ! A116  A(43,45,70)           120.3929         estimate D2E/DX2                !
 ! A117  A(47,45,70)           120.1238         estimate D2E/DX2                !
 ! A118  A(44,46,48)           119.9442         estimate D2E/DX2                !
 ! A119  A(44,46,67)           119.7698         estimate D2E/DX2                !
 ! A120  A(48,46,67)           120.2838         estimate D2E/DX2                !
 ! A121  A(45,47,48)           119.7422         estimate D2E/DX2                !
 ! A122  A(45,47,69)           120.1358         estimate D2E/DX2                !
 ! A123  A(48,47,69)           120.1203         estimate D2E/DX2                !
 ! A124  A(46,48,47)           120.0759         estimate D2E/DX2                !
 ! A125  A(46,48,68)           119.897          estimate D2E/DX2                !
 ! A126  A(47,48,68)           120.0271         estimate D2E/DX2                !
 ! A127  A(16,49,17)            89.9849         estimate D2E/DX2                !
 ! A128  A(16,49,18)            90.0153         estimate D2E/DX2                !
 ! A129  A(17,49,19)            89.8577         estimate D2E/DX2                !
 ! A130  A(18,49,19)            90.1421         estimate D2E/DX2                !
 ! A131  A(24,50,74)           126.9538         estimate D2E/DX2                !
 ! A132  A(24,50,77)           121.4302         estimate D2E/DX2                !
 ! A133  A(74,50,77)           111.6158         estimate D2E/DX2                !
 ! A134  A(72,51,74)           124.0659         estimate D2E/DX2                !
 ! A135  A(72,51,75)           123.7462         estimate D2E/DX2                !
 ! A136  A(74,51,75)           112.1825         estimate D2E/DX2                !
 ! A137  A(6,53,73)            126.7718         estimate D2E/DX2                !
 ! A138  A(6,53,78)            121.5515         estimate D2E/DX2                !
 ! A139  A(73,53,78)           111.6764         estimate D2E/DX2                !
 ! A140  A(71,54,73)           124.0633         estimate D2E/DX2                !
 ! A141  A(71,54,79)           123.7563         estimate D2E/DX2                !
 ! A142  A(73,54,79)           112.1756         estimate D2E/DX2                !
 ! A143  A(53,73,54)           110.9998         estimate D2E/DX2                !
 ! A144  A(53,73,55)           124.7325         estimate D2E/DX2                !
 ! A145  A(54,73,55)           124.2487         estimate D2E/DX2                !
 ! A146  A(50,74,51)           111.0513         estimate D2E/DX2                !
 ! A147  A(50,74,52)           124.707          estimate D2E/DX2                !
 ! A148  A(51,74,52)           124.2234         estimate D2E/DX2                !
 ! A149  A(51,75,76)           125.143          estimate D2E/DX2                !
 ! A150  A(51,75,77)           111.0086         estimate D2E/DX2                !
 ! A151  A(76,75,77)           123.8469         estimate D2E/DX2                !
 ! A152  A(50,77,75)            93.2375         estimate D2E/DX2                !
 ! A153  A(53,78,79)            93.244          estimate D2E/DX2                !
 ! A154  A(54,79,78)           111.0263         estimate D2E/DX2                !
 ! A155  A(54,79,80)           125.1511         estimate D2E/DX2                !
 ! A156  A(78,79,80)           123.8216         estimate D2E/DX2                !
 ! A157  A(27,81,82)           109.5            estimate D2E/DX2                !
 ! A158  L(16,49,19,18,-1)     180.1574         estimate D2E/DX2                !
 ! A159  L(17,49,18,19,-1)     179.9998         estimate D2E/DX2                !
 ! A160  L(16,49,19,18,-2)     182.2159         estimate D2E/DX2                !
 ! A161  L(17,49,18,19,-2)     179.9999         estimate D2E/DX2                !
 ! D1    D(24,1,17,10)          -3.0997         estimate D2E/DX2                !
 ! D2    D(24,1,17,49)         175.417          estimate D2E/DX2                !
 ! D3    D(27,1,17,10)        -179.6058         estimate D2E/DX2                !
 ! D4    D(27,1,17,49)          -1.089          estimate D2E/DX2                !
 ! D5    D(17,1,24,11)          -3.1449         estimate D2E/DX2                !
 ! D6    D(17,1,24,50)         178.8123         estimate D2E/DX2                !
 ! D7    D(27,1,24,11)         173.4258         estimate D2E/DX2                !
 ! D8    D(27,1,24,50)          -4.617          estimate D2E/DX2                !
 ! D9    D(17,1,27,7)           31.477          estimate D2E/DX2                !
 ! D10   D(17,1,27,81)        -153.8089         estimate D2E/DX2                !
 ! D11   D(24,1,27,7)         -144.5854         estimate D2E/DX2                !
 ! D12   D(24,1,27,81)          30.1288         estimate D2E/DX2                !
 ! D13   D(20,2,18,4)            2.8054         estimate D2E/DX2                !
 ! D14   D(20,2,18,49)         179.7578         estimate D2E/DX2                !
 ! D15   D(30,2,18,4)         -172.5369         estimate D2E/DX2                !
 ! D16   D(30,2,18,49)           4.4155         estimate D2E/DX2                !
 ! D17   D(18,2,20,3)           -5.4627         estimate D2E/DX2                !
 ! D18   D(18,2,20,21)         176.2995         estimate D2E/DX2                !
 ! D19   D(30,2,20,3)          170.1476         estimate D2E/DX2                !
 ! D20   D(30,2,20,21)          -8.0902         estimate D2E/DX2                !
 ! D21   D(18,2,30,8)           17.7371         estimate D2E/DX2                !
 ! D22   D(18,2,30,37)        -165.1856         estimate D2E/DX2                !
 ! D23   D(20,2,30,8)         -157.083          estimate D2E/DX2                !
 ! D24   D(20,2,30,37)          19.9943         estimate D2E/DX2                !
 ! D25   D(15,3,4,18)          175.8515         estimate D2E/DX2                !
 ! D26   D(15,3,4,29)           -2.7062         estimate D2E/DX2                !
 ! D27   D(20,3,4,18)           -3.8086         estimate D2E/DX2                !
 ! D28   D(20,3,4,29)          177.6337         estimate D2E/DX2                !
 ! D29   D(4,3,20,2)             5.3119         estimate D2E/DX2                !
 ! D30   D(4,3,20,21)         -176.4521         estimate D2E/DX2                !
 ! D31   D(15,3,20,2)         -174.3467         estimate D2E/DX2                !
 ! D32   D(15,3,20,21)           3.8893         estimate D2E/DX2                !
 ! D33   D(3,4,18,2)             0.3802         estimate D2E/DX2                !
 ! D34   D(3,4,18,49)         -176.6077         estimate D2E/DX2                !
 ! D35   D(29,4,18,2)          178.9298         estimate D2E/DX2                !
 ! D36   D(29,4,18,49)           1.9419         estimate D2E/DX2                !
 ! D37   D(3,4,29,5)          -164.8852         estimate D2E/DX2                !
 ! D38   D(3,4,29,31)           13.3613         estimate D2E/DX2                !
 ! D39   D(18,4,29,5)           16.8145         estimate D2E/DX2                !
 ! D40   D(18,4,29,31)        -164.939          estimate D2E/DX2                !
 ! D41   D(22,5,16,7)           -7.6286         estimate D2E/DX2                !
 ! D42   D(22,5,16,49)         170.5718         estimate D2E/DX2                !
 ! D43   D(29,5,16,7)          166.4373         estimate D2E/DX2                !
 ! D44   D(29,5,16,49)         -15.3623         estimate D2E/DX2                !
 ! D45   D(16,5,22,6)            9.8091         estimate D2E/DX2                !
 ! D46   D(16,5,22,23)        -171.1994         estimate D2E/DX2                !
 ! D47   D(29,5,22,6)         -164.4433         estimate D2E/DX2                !
 ! D48   D(29,5,22,23)          14.5482         estimate D2E/DX2                !
 ! D49   D(16,5,29,4)          -10.2325         estimate D2E/DX2                !
 ! D50   D(16,5,29,31)         171.4717         estimate D2E/DX2                !
 ! D51   D(22,5,29,4)          162.9222         estimate D2E/DX2                !
 ! D52   D(22,5,29,31)         -15.3736         estimate D2E/DX2                !
 ! D53   D(22,6,7,16)            3.7399         estimate D2E/DX2                !
 ! D54   D(22,6,7,27)         -174.0408         estimate D2E/DX2                !
 ! D55   D(53,6,7,16)         -178.523          estimate D2E/DX2                !
 ! D56   D(53,6,7,27)            3.6962         estimate D2E/DX2                !
 ! D57   D(7,6,22,5)            -8.4053         estimate D2E/DX2                !
 ! D58   D(7,6,22,23)          172.5926         estimate D2E/DX2                !
 ! D59   D(53,6,22,5)          173.7966         estimate D2E/DX2                !
 ! D60   D(53,6,22,23)          -5.2056         estimate D2E/DX2                !
 ! D61   D(7,6,53,73)           33.4269         estimate D2E/DX2                !
 ! D62   D(7,6,53,78)         -146.8061         estimate D2E/DX2                !
 ! D63   D(22,6,53,73)        -149.1812         estimate D2E/DX2                !
 ! D64   D(22,6,53,78)          30.5858         estimate D2E/DX2                !
 ! D65   D(6,7,16,5)             2.3638         estimate D2E/DX2                !
 ! D66   D(6,7,16,49)         -175.7786         estimate D2E/DX2                !
 ! D67   D(27,7,16,5)         -179.8901         estimate D2E/DX2                !
 ! D68   D(27,7,16,49)           1.9675         estimate D2E/DX2                !
 ! D69   D(6,7,27,1)           145.498          estimate D2E/DX2                !
 ! D70   D(6,7,27,81)          -29.2136         estimate D2E/DX2                !
 ! D71   D(16,7,27,1)          -31.9472         estimate D2E/DX2                !
 ! D72   D(16,7,27,81)         153.3412         estimate D2E/DX2                !
 ! D73   D(19,8,9,14)         -176.6353         estimate D2E/DX2                !
 ! D74   D(19,8,9,25)            3.9199         estimate D2E/DX2                !
 ! D75   D(30,8,9,14)            2.4382         estimate D2E/DX2                !
 ! D76   D(30,8,9,25)         -177.0065         estimate D2E/DX2                !
 ! D77   D(9,8,19,12)           -1.9818         estimate D2E/DX2                !
 ! D78   D(9,8,19,49)          178.7644         estimate D2E/DX2                !
 ! D79   D(30,8,19,12)         178.9516         estimate D2E/DX2                !
 ! D80   D(30,8,19,49)          -0.3023         estimate D2E/DX2                !
 ! D81   D(9,8,30,2)           161.554          estimate D2E/DX2                !
 ! D82   D(9,8,30,37)          -15.5162         estimate D2E/DX2                !
 ! D83   D(19,8,30,2)          -19.5088         estimate D2E/DX2                !
 ! D84   D(19,8,30,37)         163.421          estimate D2E/DX2                !
 ! D85   D(8,9,25,12)           -3.8603         estimate D2E/DX2                !
 ! D86   D(8,9,25,26)          176.0607         estimate D2E/DX2                !
 ! D87   D(14,9,25,12)         176.6975         estimate D2E/DX2                !
 ! D88   D(14,9,25,26)          -3.3816         estimate D2E/DX2                !
 ! D89   D(17,10,11,13)        171.5661         estimate D2E/DX2                !
 ! D90   D(17,10,11,24)        -10.0876         estimate D2E/DX2                !
 ! D91   D(28,10,11,13)        -12.7037         estimate D2E/DX2                !
 ! D92   D(28,10,11,24)        165.6426         estimate D2E/DX2                !
 ! D93   D(11,10,17,1)           8.2187         estimate D2E/DX2                !
 ! D94   D(11,10,17,49)       -170.3312         estimate D2E/DX2                !
 ! D95   D(28,10,17,1)        -167.3796         estimate D2E/DX2                !
 ! D96   D(28,10,17,49)         14.0705         estimate D2E/DX2                !
 ! D97   D(11,10,28,12)       -164.7712         estimate D2E/DX2                !
 ! D98   D(11,10,28,43)         13.013          estimate D2E/DX2                !
 ! D99   D(17,10,28,12)         10.1301         estimate D2E/DX2                !
 ! D100  D(17,10,28,43)       -172.0856         estimate D2E/DX2                !
 ! D101  D(10,11,24,1)           8.2434         estimate D2E/DX2                !
 ! D102  D(10,11,24,50)       -173.6636         estimate D2E/DX2                !
 ! D103  D(13,11,24,1)        -173.3891         estimate D2E/DX2                !
 ! D104  D(13,11,24,50)          4.7039         estimate D2E/DX2                !
 ! D105  D(25,12,19,8)          -0.3307         estimate D2E/DX2                !
 ! D106  D(25,12,19,49)        178.93           estimate D2E/DX2                !
 ! D107  D(28,12,19,8)        -179.4484         estimate D2E/DX2                !
 ! D108  D(28,12,19,49)         -0.1877         estimate D2E/DX2                !
 ! D109  D(19,12,25,9)           2.7968         estimate D2E/DX2                !
 ! D110  D(19,12,25,26)       -177.1244         estimate D2E/DX2                !
 ! D111  D(28,12,25,9)        -178.0849         estimate D2E/DX2                !
 ! D112  D(28,12,25,26)          1.9939         estimate D2E/DX2                !
 ! D113  D(19,12,28,10)        -16.8096         estimate D2E/DX2                !
 ! D114  D(19,12,28,43)        165.4593         estimate D2E/DX2                !
 ! D115  D(25,12,28,10)        164.2239         estimate D2E/DX2                !
 ! D116  D(25,12,28,43)        -13.5072         estimate D2E/DX2                !
 ! D117  D(5,16,49,17)        -154.8724         estimate D2E/DX2                !
 ! D118  D(5,16,49,18)          25.1276         estimate D2E/DX2                !
 ! D119  D(7,16,49,17)          22.9214         estimate D2E/DX2                !
 ! D120  D(7,16,49,18)        -157.0786         estimate D2E/DX2                !
 ! D121  D(1,17,49,16)         -23.258          estimate D2E/DX2                !
 ! D122  D(1,17,49,19)         158.9579         estimate D2E/DX2                !
 ! D123  D(10,17,49,16)        154.9682         estimate D2E/DX2                !
 ! D124  D(10,17,49,19)        -22.8159         estimate D2E/DX2                !
 ! D125  D(2,18,49,16)         164.3895         estimate D2E/DX2                !
 ! D126  D(2,18,49,19)         -17.8264         estimate D2E/DX2                !
 ! D127  D(4,18,49,16)         -19.2239         estimate D2E/DX2                !
 ! D128  D(4,18,49,19)         158.5603         estimate D2E/DX2                !
 ! D129  D(8,19,49,17)        -164.1022         estimate D2E/DX2                !
 ! D130  D(8,19,49,18)          15.8978         estimate D2E/DX2                !
 ! D131  D(12,19,49,17)         16.7894         estimate D2E/DX2                !
 ! D132  D(12,19,49,18)       -163.2105         estimate D2E/DX2                !
 ! D133  D(1,24,50,74)         151.3846         estimate D2E/DX2                !
 ! D134  D(1,24,50,77)         -28.7625         estimate D2E/DX2                !
 ! D135  D(11,24,50,74)        -26.3535         estimate D2E/DX2                !
 ! D136  D(11,24,50,77)        153.4995         estimate D2E/DX2                !
 ! D137  D(1,27,81,82)          92.6205         estimate D2E/DX2                !
 ! D138  D(7,27,81,82)         -93.4647         estimate D2E/DX2                !
 ! D139  D(10,28,43,44)       -100.3567         estimate D2E/DX2                !
 ! D140  D(10,28,43,45)         79.1971         estimate D2E/DX2                !
 ! D141  D(12,28,43,44)         77.3527         estimate D2E/DX2                !
 ! D142  D(12,28,43,45)       -103.0936         estimate D2E/DX2                !
 ! D143  D(4,29,31,32)         -76.1283         estimate D2E/DX2                !
 ! D144  D(4,29,31,33)         104.4119         estimate D2E/DX2                !
 ! D145  D(5,29,31,32)         102.0932         estimate D2E/DX2                !
 ! D146  D(5,29,31,33)         -77.3666         estimate D2E/DX2                !
 ! D147  D(2,30,37,38)          77.5606         estimate D2E/DX2                !
 ! D148  D(2,30,37,39)        -102.443          estimate D2E/DX2                !
 ! D149  D(8,30,37,38)        -105.4607         estimate D2E/DX2                !
 ! D150  D(8,30,37,39)          74.5356         estimate D2E/DX2                !
 ! D151  D(29,31,32,34)       -176.3988         estimate D2E/DX2                !
 ! D152  D(29,31,32,60)          1.0832         estimate D2E/DX2                !
 ! D153  D(33,31,32,34)          3.0661         estimate D2E/DX2                !
 ! D154  D(33,31,32,60)       -179.452          estimate D2E/DX2                !
 ! D155  D(29,31,33,35)       -179.018          estimate D2E/DX2                !
 ! D156  D(29,31,33,56)         -1.2303         estimate D2E/DX2                !
 ! D157  D(32,31,33,35)          1.5368         estimate D2E/DX2                !
 ! D158  D(32,31,33,56)        179.3245         estimate D2E/DX2                !
 ! D159  D(31,32,34,36)         -4.8613         estimate D2E/DX2                !
 ! D160  D(31,32,34,59)        174.591          estimate D2E/DX2                !
 ! D161  D(60,32,34,36)        177.6809         estimate D2E/DX2                !
 ! D162  D(60,32,34,59)         -2.8668         estimate D2E/DX2                !
 ! D163  D(31,33,35,36)         -4.3217         estimate D2E/DX2                !
 ! D164  D(31,33,35,57)        175.2341         estimate D2E/DX2                !
 ! D165  D(56,33,35,36)        177.8805         estimate D2E/DX2                !
 ! D166  D(56,33,35,57)         -2.5637         estimate D2E/DX2                !
 ! D167  D(32,34,36,35)          2.0618         estimate D2E/DX2                !
 ! D168  D(32,34,36,58)       -177.9443         estimate D2E/DX2                !
 ! D169  D(59,34,36,35)       -177.3874         estimate D2E/DX2                !
 ! D170  D(59,34,36,58)          2.6065         estimate D2E/DX2                !
 ! D171  D(33,35,36,34)          2.5426         estimate D2E/DX2                !
 ! D172  D(33,35,36,58)       -177.4513         estimate D2E/DX2                !
 ! D173  D(57,35,36,34)       -177.0138         estimate D2E/DX2                !
 ! D174  D(57,35,36,58)          2.9923         estimate D2E/DX2                !
 ! D175  D(30,37,38,40)        177.9227         estimate D2E/DX2                !
 ! D176  D(30,37,38,61)          0.2666         estimate D2E/DX2                !
 ! D177  D(39,37,38,40)         -2.0736         estimate D2E/DX2                !
 ! D178  D(39,37,38,61)       -179.7297         estimate D2E/DX2                !
 ! D179  D(30,37,39,41)        177.6285         estimate D2E/DX2                !
 ! D180  D(30,37,39,65)         -0.0411         estimate D2E/DX2                !
 ! D181  D(38,37,39,41)         -2.3751         estimate D2E/DX2                !
 ! D182  D(38,37,39,65)        179.9553         estimate D2E/DX2                !
 ! D183  D(37,38,40,42)          4.3869         estimate D2E/DX2                !
 ! D184  D(37,38,40,62)       -175.1401         estimate D2E/DX2                !
 ! D185  D(61,38,40,42)       -177.941          estimate D2E/DX2                !
 ! D186  D(61,38,40,62)          2.532          estimate D2E/DX2                !
 ! D187  D(37,39,41,42)          4.5283         estimate D2E/DX2                !
 ! D188  D(37,39,41,64)       -174.9638         estimate D2E/DX2                !
 ! D189  D(65,39,41,42)       -177.8135         estimate D2E/DX2                !
 ! D190  D(65,39,41,64)          2.6943         estimate D2E/DX2                !
 ! D191  D(38,40,42,41)         -2.2586         estimate D2E/DX2                !
 ! D192  D(38,40,42,63)        177.734          estimate D2E/DX2                !
 ! D193  D(62,40,42,41)        177.2703         estimate D2E/DX2                !
 ! D194  D(62,40,42,63)         -2.7371         estimate D2E/DX2                !
 ! D195  D(39,41,42,40)         -2.1988         estimate D2E/DX2                !
 ! D196  D(39,41,42,63)        177.8086         estimate D2E/DX2                !
 ! D197  D(64,41,42,40)        177.2928         estimate D2E/DX2                !
 ! D198  D(64,41,42,63)         -2.6998         estimate D2E/DX2                !
 ! D199  D(28,43,44,46)        176.7465         estimate D2E/DX2                !
 ! D200  D(28,43,44,66)         -0.7187         estimate D2E/DX2                !
 ! D201  D(45,43,44,46)         -2.8076         estimate D2E/DX2                !
 ! D202  D(45,43,44,66)        179.7272         estimate D2E/DX2                !
 ! D203  D(28,43,45,47)        178.6072         estimate D2E/DX2                !
 ! D204  D(28,43,45,70)          0.872          estimate D2E/DX2                !
 ! D205  D(44,43,45,47)         -1.8502         estimate D2E/DX2                !
 ! D206  D(44,43,45,70)       -179.5854         estimate D2E/DX2                !
 ! D207  D(43,44,46,48)          4.8014         estimate D2E/DX2                !
 ! D208  D(43,44,46,67)       -174.6608         estimate D2E/DX2                !
 ! D209  D(66,44,46,48)       -177.7539         estimate D2E/DX2                !
 ! D210  D(66,44,46,67)          2.7839         estimate D2E/DX2                !
 ! D211  D(43,45,47,48)          4.4845         estimate D2E/DX2                !
 ! D212  D(43,45,47,69)       -175.041          estimate D2E/DX2                !
 ! D213  D(70,45,47,48)       -177.774          estimate D2E/DX2                !
 ! D214  D(70,45,47,69)          2.7004         estimate D2E/DX2                !
 ! D215  D(44,46,48,47)         -2.157          estimate D2E/DX2                !
 ! D216  D(44,46,48,68)        177.8312         estimate D2E/DX2                !
 ! D217  D(67,46,48,47)        177.3024         estimate D2E/DX2                !
 ! D218  D(67,46,48,68)         -2.7094         estimate D2E/DX2                !
 ! D219  D(45,47,48,46)         -2.5052         estimate D2E/DX2                !
 ! D220  D(45,47,48,68)        177.5066         estimate D2E/DX2                !
 ! D221  D(69,47,48,46)        177.0205         estimate D2E/DX2                !
 ! D222  D(69,47,48,68)         -2.9678         estimate D2E/DX2                !
 ! D223  D(24,50,74,51)       -173.8659         estimate D2E/DX2                !
 ! D224  D(24,50,74,52)          4.6274         estimate D2E/DX2                !
 ! D225  D(77,50,74,51)          6.2691         estimate D2E/DX2                !
 ! D226  D(77,50,74,52)       -175.2377         estimate D2E/DX2                !
 ! D227  D(24,50,77,75)        171.4646         estimate D2E/DX2                !
 ! D228  D(74,50,77,75)         -8.6618         estimate D2E/DX2                !
 ! D229  D(72,51,74,50)        179.3614         estimate D2E/DX2                !
 ! D230  D(72,51,74,52)          0.8595         estimate D2E/DX2                !
 ! D231  D(75,51,74,50)          0.1811         estimate D2E/DX2                !
 ! D232  D(75,51,74,52)       -178.3208         estimate D2E/DX2                !
 ! D233  D(72,51,75,76)         -6.1335         estimate D2E/DX2                !
 ! D234  D(72,51,75,77)        174.2855         estimate D2E/DX2                !
 ! D235  D(74,51,75,76)        173.0499         estimate D2E/DX2                !
 ! D236  D(74,51,75,77)         -6.5311         estimate D2E/DX2                !
 ! D237  D(6,53,73,54)         173.674          estimate D2E/DX2                !
 ! D238  D(6,53,73,55)          -4.7972         estimate D2E/DX2                !
 ! D239  D(78,53,73,54)         -6.1123         estimate D2E/DX2                !
 ! D240  D(78,53,73,55)        175.4164         estimate D2E/DX2                !
 ! D241  D(6,53,78,79)        -171.2904         estimate D2E/DX2                !
 ! D242  D(73,53,78,79)          8.5088         estimate D2E/DX2                !
 ! D243  D(71,54,73,53)       -179.4919         estimate D2E/DX2                !
 ! D244  D(71,54,73,55)         -1.0118         estimate D2E/DX2                !
 ! D245  D(79,54,73,53)         -0.2669         estimate D2E/DX2                !
 ! D246  D(79,54,73,55)        178.2131         estimate D2E/DX2                !
 ! D247  D(71,54,79,78)       -174.2744         estimate D2E/DX2                !
 ! D248  D(71,54,79,80)          6.0814         estimate D2E/DX2                !
 ! D249  D(73,54,79,78)          6.4978         estimate D2E/DX2                !
 ! D250  D(73,54,79,80)       -173.1464         estimate D2E/DX2                !
 ! D251  D(51,75,77,50)          8.6917         estimate D2E/DX2                !
 ! D252  D(76,75,77,50)       -170.8958         estimate D2E/DX2                !
 ! D253  D(53,78,79,54)         -8.5895         estimate D2E/DX2                !
 ! D254  D(53,78,79,80)        171.0603         estimate D2E/DX2                !
 --------------------------------------------------------------------------------
 Trust Radius=3.00D-01 FncErr=1.00D-07 GrdErr=1.00D-06 EigMax=2.50D+02 EigMin=1.00D-04
 Number of steps in this run=    492 maximum allowed number of steps=    492.
 GradGradGradGradGradGradGradGradGradGradGradGradGradGradGradGradGradGrad

 Stoichiometry    C46H13F15N4NiOS2
 Framework group  C1[X(C46H13F15N4NiOS2)]
 Deg. of freedom   240
 Full point group                 C1      NOp   1
 Largest Abelian subgroup         C1      NOp   1
 Largest concise Abelian subgroup C1      NOp   1
                         Standard orientation:                         
 ---------------------------------------------------------------------
 Center     Atomic      Atomic             Coordinates (Angstroms)
 Number     Number       Type             X           Y           Z
 ---------------------------------------------------------------------
      1          6           0       -0.821446   -2.587697   -0.907693
      2          6           0        0.627624    2.912062   -0.274727
      3          6           0        2.882103    3.126234    0.322997
      4          6           0        2.441714    1.673835    0.265679
      5          6           0        2.769867   -0.611144    0.146598
      6          6           0        2.862359   -2.651299   -0.702683
      7          6           0        1.579181   -2.165039   -0.893019
      8          6           0       -1.701629    2.535555   -0.181328
      9          6           0       -3.154646    2.996862    0.033505
     10          6           0       -2.483863   -1.543730    0.128773
     11          6           0       -2.838038   -2.882303    0.026829
     12          6           0       -2.965568    0.716248    0.306976
     13          1           0       -3.713818   -3.350954    0.420164
     14          1           0       -3.511927    3.998426   -0.066225
     15          1           0        3.840915    3.490256    0.626624
     16          7           0        1.462749   -0.944249   -0.365255
     17          7           0       -1.134485   -1.400557   -0.371917
     18          7           0        1.009730    1.643764   -0.112740
     19          7           0       -1.610630    1.188071   -0.045595
     20          6           0        1.829559    3.859518   -0.074630
     21          1           0        1.817174    4.919157   -0.200973
     22          6           0        3.571290   -1.735578    0.049171
     23          1           0        4.550012   -1.869741    0.455790
     24          6           0       -1.850260   -3.493949   -0.720680
     25          6           0       -3.888806    1.926024    0.378824
     26          1           0       -4.921059    1.921646    0.652764
     27          6           0        0.483222   -2.930831   -1.547889
     28          6           0       -3.317008   -0.550213    0.541394
     29          6           0        3.207296    0.614792    0.540230
     30          6           0       -0.650168    3.376705   -0.488545
     31          6           0        4.559120    0.744245    1.238428
     32          6           0        5.635328    1.204253    0.490447
     33          6           0        4.722462    0.400986    2.589913
     34          6           0        6.904690    1.266965    1.065754
     35          6           0        5.977234    0.555849    3.194223
     36          6           0        7.074469    0.963898    2.423419
     37          6           0       -0.897607    4.812924   -0.989115
     38          6           0       -0.706912    5.144447   -2.346561
     39          6           0       -1.314139    5.790482   -0.086823
     40          6           0       -0.980091    6.448963   -2.790710
     41          6           0       -1.495371    7.110992   -0.515749
     42          6           0       -1.351287    7.436705   -1.869962
     43          6           0       -4.638943   -0.906777    1.207145
     44          6           0       -5.797292   -0.853517    0.442377
     45          6           0       -4.685663   -1.288237    2.554388
     46          6           0       -7.014970   -1.239462    1.002883
     47          6           0       -5.920770   -1.581374    3.144064
     48          6           0       -7.082981   -1.582275    2.360127
     49         28           0       -0.063085    0.120593   -0.242415
     50          6           0       -1.893770   -4.936375   -1.201480
     51          6           0       -2.233350   -7.314731   -1.332076
     52          1           0       -3.219722   -5.880001    0.220406
     53          6           0        3.409975   -3.985374   -1.179281
     54          6           0        3.964821   -5.898239   -2.528523
     55          1           0        2.302879   -4.331837   -3.003991
     56          9           0        3.669563   -0.033666    3.318990
     57          9           0        6.128377    0.321825    4.516318
     58          9           0        8.295527    1.065450    2.986944
     59          9           0        7.965917    1.609040    0.307761
     60          9           0        5.452374    1.538638   -0.803311
     61          9           0       -0.308551    4.204023   -3.231679
     62          9           0       -0.895310    6.752277   -4.104883
     63          9           0       -1.570161    8.702348   -2.286498
     64          9           0       -1.799453    8.072731    0.380401
     65          9           0       -1.495962    5.468139    1.210233
     66          9           0       -5.727463   -0.477797   -0.851812
     67          9           0       -8.120360   -1.291328    0.232152
     68          9           0       -8.268184   -1.912845    2.911157
     69          9           0       -5.994077   -1.852904    4.465102
     70          9           0       -3.554081   -1.329183    3.293414
     71          1           0        3.882089   -6.561996   -3.361755
     72          1           0       -2.638909   -8.260188   -1.041982
     73          6           0        3.069342   -4.645841   -2.321491
     74          6           0       -2.565961   -5.971334   -0.625700
     75          6           0       -1.348822   -7.152467   -2.355909
     76          1           0       -0.899631   -7.944107   -2.909484
     77         16           0       -1.027097   -5.449427   -2.646610
     78         16           0        4.618534   -4.868343   -0.253646
     79          6           0        4.882370   -6.045054   -1.531556
     80          1           0        5.663948   -6.768488   -1.519161
     81          8           0        0.666696   -3.932181   -2.552148
     82          1           0        0.594953   -3.531160   -3.421420
 ---------------------------------------------------------------------
 Rotational constants (GHZ):           0.0271430           0.0244857           0.0159265
 General basis read from cards:  (5D, 7F)
 ======================================================================================================
                                       Pseudopotential Parameters
 ======================================================================================================
  Center     Atomic      Valence      Angular      Power
  Number     Number     Electrons     Momentum     of R      Exponent        Coefficient   SO-Coeffient
 ======================================================================================================
    1          6
                                   No pseudopotential on this center.
    2          6
                                   No pseudopotential on this center.
    3          6
                                   No pseudopotential on this center.
    4          6
                                   No pseudopotential on this center.
    5          6
                                   No pseudopotential on this center.
    6          6
                                   No pseudopotential on this center.
    7          6
                                   No pseudopotential on this center.
    8          6
                                   No pseudopotential on this center.
    9          6
                                   No pseudopotential on this center.
   10          6
                                   No pseudopotential on this center.
   11          6
                                   No pseudopotential on this center.
   12          6
                                   No pseudopotential on this center.
   13          1
                                   No pseudopotential on this center.
   14          1
                                   No pseudopotential on this center.
   15          1
                                   No pseudopotential on this center.
   16          7
                                   No pseudopotential on this center.
   17          7
                                   No pseudopotential on this center.
   18          7
                                   No pseudopotential on this center.
   19          7
                                   No pseudopotential on this center.
   20          6
                                   No pseudopotential on this center.
   21          1
                                   No pseudopotential on this center.
   22          6
                                   No pseudopotential on this center.
   23          1
                                   No pseudopotential on this center.
   24          6
                                   No pseudopotential on this center.
   25          6
                                   No pseudopotential on this center.
   26          1
                                   No pseudopotential on this center.
   27          6
                                   No pseudopotential on this center.
   28          6
                                   No pseudopotential on this center.
   29          6
                                   No pseudopotential on this center.
   30          6
                                   No pseudopotential on this center.
   31          6
                                   No pseudopotential on this center.
   32          6
                                   No pseudopotential on this center.
   33          6
                                   No pseudopotential on this center.
   34          6
                                   No pseudopotential on this center.
   35          6
                                   No pseudopotential on this center.
   36          6
                                   No pseudopotential on this center.
   37          6
                                   No pseudopotential on this center.
   38          6
                                   No pseudopotential on this center.
   39          6
                                   No pseudopotential on this center.
   40          6
                                   No pseudopotential on this center.
   41          6
                                   No pseudopotential on this center.
   42          6
                                   No pseudopotential on this center.
   43          6
                                   No pseudopotential on this center.
   44          6
                                   No pseudopotential on this center.
   45          6
                                   No pseudopotential on this center.
   46          6
                                   No pseudopotential on this center.
   47          6
                                   No pseudopotential on this center.
   48          6
                                   No pseudopotential on this center.
   49         28           18
                                      D and up 
                                                     1      469.9324331      -10.00000000    0.00000000
                                                     2       85.4236411      -69.40848050    0.00000000
                                                     2       21.2674984      -12.09510200    0.00000000
                                      S - D
                                                     0      162.1686097        3.00000000    0.00000000
                                                     1      176.5333232       22.02536180    0.00000000
                                                     2       68.9562010      443.01810880    0.00000000
                                                     2       13.5792838      145.56964110    0.00000000
                                      P - D
                                                     0       69.0181506        5.00000000    0.00000000
                                                     1      275.5955596        4.98828240    0.00000000
                                                     2       47.1315453      256.69458530    0.00000000
                                                     2       12.9874075       78.47544500    0.00000000
   50          6
                                   No pseudopotential on this center.
   51          6
                                   No pseudopotential on this center.
   52          1
                                   No pseudopotential on this center.
   53          6
                                   No pseudopotential on this center.
   54          6
                                   No pseudopotential on this center.
   55          1
                                   No pseudopotential on this center.
   56          9
                                   No pseudopotential on this center.
   57          9
                                   No pseudopotential on this center.
   58          9
                                   No pseudopotential on this center.
   59          9
                                   No pseudopotential on this center.
   60          9
                                   No pseudopotential on this center.
   61          9
                                   No pseudopotential on this center.
   62          9
                                   No pseudopotential on this center.
   63          9
                                   No pseudopotential on this center.
   64          9
                                   No pseudopotential on this center.
   65          9
                                   No pseudopotential on this center.
   66          9
                                   No pseudopotential on this center.
   67          9
                                   No pseudopotential on this center.
   68          9
                                   No pseudopotential on this center.
   69          9
                                   No pseudopotential on this center.
   70          9
                                   No pseudopotential on this center.
   71          1
                                   No pseudopotential on this center.
   72          1
                                   No pseudopotential on this center.
   73          6
                                   No pseudopotential on this center.
   74          6
                                   No pseudopotential on this center.
   75          6
                                   No pseudopotential on this center.
   76          1
                                   No pseudopotential on this center.
   77         16
                                   No pseudopotential on this center.
   78         16
                                   No pseudopotential on this center.
   79          6
                                   No pseudopotential on this center.
   80          1
                                   No pseudopotential on this center.
   81          8
                                   No pseudopotential on this center.
   82          1
                                   No pseudopotential on this center.
 ======================================================================================================
 There are  1117 symmetry adapted cartesian basis functions of A   symmetry.
 There are  1047 symmetry adapted basis functions of A   symmetry.
  1047 basis functions,  2095 primitive gaussians,  1117 cartesian basis functions
   255 alpha electrons      255 beta electrons
       nuclear repulsion energy     11774.3019192035 Hartrees.
 NAtoms=   82 NActive=   82 NUniq=   82 SFac= 1.00D+00 NAtFMM=   60 NAOKFM=T Big=T
 Integral buffers will be    131072 words long.
 Raffenetti 2 integral format.
 Two-electron integral symmetry is turned on.
 One-electron integrals computed using PRISM.
   1 Symmetry operations used in ECPInt.
 ECPInt:  NShTT=   51681 NPrTT=  356211 LenC2=   28348 LenP2D=   90656.
 LDataN:  DoStor=T MaxTD1= 4 Len=   56
 NBasis=  1047 RedAO= T EigKep=  3.40D-04  NBF=  1047
 NBsUse=  1047 1.00D-06 EigRej= -1.00D+00 NBFU=  1047
 ExpMin= 2.40D-02 ExpMax= 2.19D+04 ExpMxC= 3.30D+03 IAcc=3 IRadAn=         5 AccDes= 0.00D+00
 Harris functional with IExCor=  402 and IRadAn=       5 diagonalized for initial guess.
 HarFok:  IExCor=  402 AccDes= 0.00D+00 IRadAn=         5 IDoV= 1 UseB2=F ITyADJ=14
 ICtDFT=  3500011 ScaDFX=  1.000000  1.000000  1.000000  1.000000
 FoFCou: FMM=F IPFlag=           0 FMFlag=      100000 FMFlg1=        2001
         NFxFlg=           0 DoJE=T BraDBF=F KetDBF=T FulRan=T
         wScrn=  0.000000 ICntrl=       500 IOpCl=  0 I1Cent=   200000004 NGrid=           0
         NMat0=    1 NMatS0=      1 NMatT0=    0 NMatD0=    1 NMtDS0=    0 NMtDT0=    0
 Petite list used in FoFCou.
 Requested convergence on RMS density matrix=1.00D-08 within1000 cycles.
 Requested convergence on MAX density matrix=1.00D-06.
 Requested convergence on             energy=1.00D-06.
 No special actions if energy rises.
 EnCoef did     3 forward-backward iterations
 EnCoef did   100 forward-backward iterations
 EnCoef did   100 forward-backward iterations
 EnCoef did     4 forward-backward iterations
 Restarting incremental Fock formation.
 SCF Done:  E(RB3LYP) =  -4517.90326493     A.U. after   22 cycles
            NFock= 22  Conv=0.26D-08     -V/T= 2.0196

 **********************************************************************

            Population analysis using the SCF Density.

 **********************************************************************

 Orbital symmetries:
       Occupied  (A) (A) (A) (A) (A) (A) (A) (A) (A) (A) (A) (A)
                 (A) (A) (A) (A) (A) (A) (A) (A) (A) (A) (A) (A)
                 (A) (A) (A) (A) (A) (A) (A) (A) (A) (A) (A) (A)
                 (A) (A) (A) (A) (A) (A) (A) (A) (A) (A) (A) (A)
                 (A) (A) (A) (A) (A) (A) (A) (A) (A) (A) (A) (A)
                 (A) (A) (A) (A) (A) (A) (A) (A) (A) (A) (A) (A)
                 (A) (A) (A) (A) (A) (A) (A) (A) (A) (A) (A) (A)
                 (A) (A) (A) (A) (A) (A) (A) (A) (A) (A) (A) (A)
                 (A) (A) (A) (A) (A) (A) (A) (A) (A) (A) (A) (A)
                 (A) (A) (A) (A) (A) (A) (A) (A) (A) (A) (A) (A)
                 (A) (A) (A) (A) (A) (A) (A) (A) (A) (A) (A) (A)
                 (A) (A) (A) (A) (A) (A) (A) (A) (A) (A) (A) (A)
                 (A) (A) (A) (A) (A) (A) (A) (A) (A) (A) (A) (A)
                 (A) (A) (A) (A) (A) (A) (A) (A) (A) (A) (A) (A)
                 (A) (A) (A) (A) (A) (A) (A) (A) (A) (A) (A) (A)
                 (A) (A) (A) (A) (A) (A) (A) (A) (A) (A) (A) (A)
                 (A) (A) (A) (A) (A) (A) (A) (A) (A) (A) (A) (A)
                 (A) (A) (A) (A) (A) (A) (A) (A) (A) (A) (A) (A)
                 (A) (A) (A) (A) (A) (A) (A) (A) (A) (A) (A) (A)
                 (A) (A) (A) (A) (A) (A) (A) (A) (A) (A) (A) (A)
                 (A) (A) (A) (A) (A) (A) (A) (A) (A) (A) (A) (A)
                 (A) (A) (A)
       Virtual   (A) (A) (A) (A) (A) (A) (A) (A) (A) (A) (A) (A)
                 (A) (A) (A) (A) (A) (A) (A) (A) (A) (A) (A) (A)
                 (A) (A) (A) (A) (A) (A) (A) (A) (A) (A) (A) (A)
                 (A) (A) (A) (A) (A) (A) (A) (A) (A) (A) (A) (A)
                 (A) (A) (A) (A) (A) (A) (A) (A) (A) (A) (A) (A)
                 (A) (A) (A) (A) (A) (A) (A) (A) (A) (A) (A) (A)
                 (A) (A) (A) (A) (A) (A) (A) (A) (A) (A) (A) (A)
                 (A) (A) (A) (A) (A) (A) (A) (A) (A) (A) (A) (A)
                 (A) (A) (A) (A) (A) (A) (A) (A) (A) (A) (A) (A)
                 (A) (A) (A) (A) (A) (A) (A) (A) (A) (A) (A) (A)
                 (A) (A) (A) (A) (A) (A) (A) (A) (A) (A) (A) (A)
                 (A) (A) (A) (A) (A) (A) (A) (A) (A) (A) (A) (A)
                 (A) (A) (A) (A) (A) (A) (A) (A) (A) (A) (A) (A)
                 (A) (A) (A) (A) (A) (A) (A) (A) (A) (A) (A) (A)
                 (A) (A) (A) (A) (A) (A) (A) (A) (A) (A) (A) (A)
                 (A) (A) (A) (A) (A) (A) (A) (A) (A) (A) (A) (A)
                 (A) (A) (A) (A) (A) (A) (A) (A) (A) (A) (A) (A)
                 (A) (A) (A) (A) (A) (A) (A) (A) (A) (A) (A) (A)
                 (A) (A) (A) (A) (A) (A) (A) (A) (A) (A) (A) (A)
                 (A) (A) (A) (A) (A) (A) (A) (A) (A) (A) (A) (A)
                 (A) (A) (A) (A) (A) (A) (A) (A) (A) (A) (A) (A)
                 (A) (A) (A) (A) (A) (A) (A) (A) (A) (A) (A) (A)
                 (A) (A) (A) (A) (A) (A) (A) (A) (A) (A) (A) (A)
                 (A) (A) (A) (A) (A) (A) (A) (A) (A) (A) (A) (A)
                 (A) (A) (A) (A) (A) (A) (A) (A) (A) (A) (A) (A)
                 (A) (A) (A) (A) (A) (A) (A) (A) (A) (A) (A) (A)
                 (A) (A) (A) (A) (A) (A) (A) (A) (A) (A) (A) (A)
                 (A) (A) (A) (A) (A) (A) (A) (A) (A) (A) (A) (A)
                 (A) (A) (A) (A) (A) (A) (A) (A) (A) (A) (A) (A)
                 (A) (A) (A) (A) (A) (A) (A) (A) (A) (A) (A) (A)
                 (A) (A) (A) (A) (A) (A) (A) (A) (A) (A) (A) (A)
                 (A) (A) (A) (A) (A) (A) (A) (A) (A) (A) (A) (A)
                 (A) (A) (A) (A) (A) (A) (A) (A) (A) (A) (A) (A)
                 (A) (A) (A) (A) (A) (A) (A) (A) (A) (A) (A) (A)
                 (A) (A) (A) (A) (A) (A) (A) (A) (A) (A) (A) (A)
                 (A) (A) (A) (A) (A) (A) (A) (A) (A) (A) (A) (A)
                 (A) (A) (A) (A) (A) (A) (A) (A) (A) (A) (A) (A)
                 (A) (A) (A) (A) (A) (A) (A) (A) (A) (A) (A) (A)
                 (A) (A) (A) (A) (A) (A) (A) (A) (A) (A) (A) (A)
                 (A) (A) (A) (A) (A) (A) (A) (A) (A) (A) (A) (A)
                 (A) (A) (A) (A) (A) (A) (A) (A) (A) (A) (A) (A)
                 (A) (A) (A) (A) (A) (A) (A) (A) (A) (A) (A) (A)
                 (A) (A) (A) (A) (A) (A) (A) (A) (A) (A) (A) (A)
                 (A) (A) (A) (A) (A) (A) (A) (A) (A) (A) (A) (A)
                 (A) (A) (A) (A) (A) (A) (A) (A) (A) (A) (A) (A)
                 (A) (A) (A) (A) (A) (A) (A) (A) (A) (A) (A) (A)
                 (A) (A) (A) (A) (A) (A) (A) (A) (A) (A) (A) (A)
                 (A) (A) (A) (A) (A) (A) (A) (A) (A) (A) (A) (A)
                 (A) (A) (A) (A) (A) (A) (A) (A) (A) (A) (A) (A)
                 (A) (A) (A) (A) (A) (A) (A) (A) (A) (A) (A) (A)
                 (A) (A) (A) (A) (A) (A) (A) (A) (A) (A) (A) (A)
                 (A) (A) (A) (A) (A) (A) (A) (A) (A) (A) (A) (A)
                 (A) (A) (A) (A) (A) (A) (A) (A) (A) (A) (A) (A)
                 (A) (A) (A) (A) (A) (A) (A) (A) (A) (A) (A) (A)
                 (A) (A) (A) (A) (A) (A) (A) (A) (A) (A) (A) (A)
                 (A) (A) (A) (A) (A) (A) (A) (A) (A) (A) (A) (A)
                 (A) (A) (A) (A) (A) (A) (A) (A) (A) (A) (A) (A)
                 (A) (A) (A) (A) (A) (A) (A) (A) (A) (A) (A) (A)
                 (A) (A) (A) (A) (A) (A) (A) (A) (A) (A) (A) (A)
                 (A) (A) (A) (A) (A) (A) (A) (A) (A) (A) (A) (A)
                 (A) (A) (A) (A) (A) (A) (A) (A) (A) (A) (A) (A)
                 (A) (A) (A) (A) (A) (A) (A) (A) (A) (A) (A) (A)
                 (A) (A) (A) (A) (A) (A) (A) (A) (A) (A) (A) (A)
                 (A) (A) (A) (A) (A) (A) (A) (A) (A) (A) (A) (A)
                 (A) (A) (A) (A) (A) (A) (A) (A) (A) (A) (A) (A)
                 (A) (A) (A) (A) (A) (A) (A) (A) (A) (A) (A) (A)
 The electronic state is 1-A.
 Alpha  occ. eigenvalues --  -88.88403 -88.87732 -24.74138 -24.74054 -24.73997
 Alpha  occ. eigenvalues --  -24.73960 -24.73922 -24.73819 -24.73751 -24.73695
 Alpha  occ. eigenvalues --  -24.73685 -24.73677 -24.73619 -24.73613 -24.73595
 Alpha  occ. eigenvalues --  -24.73569 -24.73532 -19.21181 -14.36925 -14.36863
 Alpha  occ. eigenvalues --  -14.36042 -14.35988 -10.31963 -10.31892 -10.31786
 Alpha  occ. eigenvalues --  -10.31637 -10.31633 -10.31533 -10.31444 -10.31397
 Alpha  occ. eigenvalues --  -10.31393 -10.31351 -10.31331 -10.31303 -10.31281
 Alpha  occ. eigenvalues --  -10.31275 -10.31229 -10.29808 -10.24915 -10.24777
 Alpha  occ. eigenvalues --  -10.24749 -10.24723 -10.24712 -10.24710 -10.24698
 Alpha  occ. eigenvalues --  -10.24242 -10.24170 -10.23390 -10.23262 -10.22492
 Alpha  occ. eigenvalues --  -10.22417 -10.22181 -10.22154 -10.22028 -10.20983
 Alpha  occ. eigenvalues --  -10.20905 -10.20896 -10.20859 -10.20784 -10.20740
 Alpha  occ. eigenvalues --  -10.20696 -10.20026 -10.19272 -10.19151 -10.18985
 Alpha  occ. eigenvalues --  -10.18949 -10.18876 -10.18493  -7.95923  -7.95337
 Alpha  occ. eigenvalues --   -5.92293  -5.91904  -5.91687  -5.91499  -5.91283
 Alpha  occ. eigenvalues --   -5.90918  -4.04543  -2.66326  -2.66258  -2.60649
 Alpha  occ. eigenvalues --   -1.26331  -1.26251  -1.26159  -1.25713  -1.25658
 Alpha  occ. eigenvalues --   -1.25570  -1.25241  -1.25168  -1.25087  -1.24465
 Alpha  occ. eigenvalues --   -1.24404  -1.24329  -1.24091  -1.24002  -1.23925
 Alpha  occ. eigenvalues --   -1.08799  -0.98604  -0.97430  -0.96664  -0.94799
 Alpha  occ. eigenvalues --   -0.91646  -0.91518  -0.91079  -0.86523  -0.86309
 Alpha  occ. eigenvalues --   -0.85994  -0.84766  -0.82662  -0.79877  -0.79577
 Alpha  occ. eigenvalues --   -0.79251  -0.79228  -0.79193  -0.79112  -0.78855
 Alpha  occ. eigenvalues --   -0.78403  -0.78135  -0.77284  -0.75296  -0.74263
 Alpha  occ. eigenvalues --   -0.72397  -0.71597  -0.71482  -0.70936  -0.68677
 Alpha  occ. eigenvalues --   -0.68394  -0.67748  -0.67099  -0.67017  -0.66895
 Alpha  occ. eigenvalues --   -0.66458  -0.65750  -0.61612  -0.61119  -0.60640
 Alpha  occ. eigenvalues --   -0.60271  -0.60019  -0.59835  -0.59594  -0.59528
 Alpha  occ. eigenvalues --   -0.59306  -0.59153  -0.58913  -0.57981  -0.57876
 Alpha  occ. eigenvalues --   -0.57779  -0.57536  -0.56484  -0.55833  -0.55445
 Alpha  occ. eigenvalues --   -0.55205  -0.55162  -0.55105  -0.54973  -0.54822
 Alpha  occ. eigenvalues --   -0.54590  -0.54430  -0.54397  -0.53665  -0.53585
 Alpha  occ. eigenvalues --   -0.52847  -0.52750  -0.52613  -0.52477  -0.52405
 Alpha  occ. eigenvalues --   -0.52245  -0.52125  -0.51677  -0.50847  -0.50517
 Alpha  occ. eigenvalues --   -0.49794  -0.49716  -0.49646  -0.48792  -0.48712
 Alpha  occ. eigenvalues --   -0.48625  -0.47768  -0.47359  -0.47295  -0.46985
 Alpha  occ. eigenvalues --   -0.46913  -0.46847  -0.46775  -0.46578  -0.46420
 Alpha  occ. eigenvalues --   -0.46321  -0.46306  -0.45724  -0.45351  -0.44620
 Alpha  occ. eigenvalues --   -0.44563  -0.44495  -0.44267  -0.44157  -0.44086
 Alpha  occ. eigenvalues --   -0.44007  -0.43660  -0.43489  -0.43278  -0.42651
 Alpha  occ. eigenvalues --   -0.42407  -0.42206  -0.42204  -0.42106  -0.42024
 Alpha  occ. eigenvalues --   -0.41956  -0.41045  -0.40840  -0.40354  -0.40285
 Alpha  occ. eigenvalues --   -0.40016  -0.39665  -0.39178  -0.39101  -0.39044
 Alpha  occ. eigenvalues --   -0.38973  -0.38847  -0.38634  -0.37860  -0.37478
 Alpha  occ. eigenvalues --   -0.37128  -0.36825  -0.36505  -0.36391  -0.36272
 Alpha  occ. eigenvalues --   -0.35911  -0.35773  -0.34797  -0.34194  -0.34047
 Alpha  occ. eigenvalues --   -0.33131  -0.32768  -0.32099  -0.31391  -0.30431
 Alpha  occ. eigenvalues --   -0.29859  -0.29390  -0.28878  -0.28186  -0.27834
 Alpha  occ. eigenvalues --   -0.27724  -0.27456  -0.26954  -0.26870  -0.26812
 Alpha  occ. eigenvalues --   -0.26656  -0.25158  -0.24946  -0.24888  -0.23718
 Alpha  occ. eigenvalues --   -0.22785  -0.22407  -0.21670  -0.20955  -0.19641
 Alpha virt. eigenvalues --   -0.11253  -0.09293  -0.05137  -0.04934  -0.04072
 Alpha virt. eigenvalues --   -0.04030  -0.03800  -0.03240  -0.03168  -0.03082
 Alpha virt. eigenvalues --   -0.01084  -0.00940  -0.00600  -0.00408  -0.00303
 Alpha virt. eigenvalues --    0.01320   0.01964   0.02625   0.03097   0.03411
 Alpha virt. eigenvalues --    0.04014   0.04503   0.04676   0.04992   0.05369
 Alpha virt. eigenvalues --    0.05675   0.06901   0.07061   0.07413   0.07648
 Alpha virt. eigenvalues --    0.08693   0.08900   0.09284   0.09336   0.10206
 Alpha virt. eigenvalues --    0.10876   0.11182   0.11484   0.11706   0.11913
[...]
 Alpha virt. eigenvalues --    0.48767   0.49287   0.49877   0.50406   0.50436
 Alpha virt. eigenvalues --    0.50650   0.50727   0.51015   0.51188   0.51316
 Alpha virt. eigenvalues --    0.51430   0.51742   0.52081   0.52381   0.52473
 Alpha virt. eigenvalues --    0.52898   0.53067   0.53289   0.53387   0.53981
 Alpha virt. eigenvalues --    0.54133   0.54381   0.54581   0.54676   0.54770
 Alpha virt. eigenvalues --    0.55122   0.55346   0.55726   0.56014   0.56187
 Alpha virt. eigenvalues --    0.56305   0.56412   0.56908   0.57019   0.57114
 Alpha virt. eigenvalues --    0.57277   0.57705   0.58131   0.58317   0.58625
 Alpha virt. eigenvalues --    0.58663   0.58763   0.59074   0.59292   0.60094
 Alpha virt. eigenvalues --    0.60613   0.60845   0.60941   0.61105   0.61174
 Alpha virt. eigenvalues --    0.61552   0.61760   0.61941   0.62220   0.62720
 Alpha virt. eigenvalues --    0.62825   0.63071   0.63428   0.63941   0.64177
 Alpha virt. eigenvalues --    0.64308   0.64444   0.64667   0.65161   0.65409
 Alpha virt. eigenvalues --    0.65605   0.65687   0.65886   0.66131   0.66502
 Alpha virt. eigenvalues --    0.66648   0.66972   0.67686   0.68674   0.69169
 Alpha virt. eigenvalues --    0.69853   0.70522   0.71092   0.71794   0.71872
 Alpha virt. eigenvalues --    0.72238   0.72675   0.72971   0.73645   0.74147
 Alpha virt. eigenvalues --    0.74791   0.75495   0.76038   0.76953   0.77010
 Alpha virt. eigenvalues --    0.77154   0.77410   0.78300   0.78609   0.78935
 Alpha virt. eigenvalues --    0.79133   0.79653   0.80100   0.80366   0.80704
 Alpha virt. eigenvalues --    0.81032   0.81268   0.81356   0.81654   0.81913
 Alpha virt. eigenvalues --    0.82084   0.82244   0.82296   0.82661   0.82739
 Alpha virt. eigenvalues --    0.83177   0.83440   0.83738   0.83943   0.84122
 Alpha virt. eigenvalues --    0.84439   0.84921   0.85026   0.85526   0.86138
 Alpha virt. eigenvalues --    0.86216   0.86576   0.86746   0.87371   0.87577
 Alpha virt. eigenvalues --    0.87658   0.88127   0.88200   0.88968   0.89790
 Alpha virt. eigenvalues --    0.90175   0.90705   0.91190   0.91497   0.91715
 Alpha virt. eigenvalues --    0.92530   0.93037   0.93785   0.94112   0.94275
 Alpha virt. eigenvalues --    0.94552   0.94667   0.95255   0.95624   0.95994
 Alpha virt. eigenvalues --    0.96463   0.96991   0.97719   0.98460   0.98833
 Alpha virt. eigenvalues --    0.99033   0.99690   1.00003   1.00474   1.01163
 Alpha virt. eigenvalues --    1.01685   1.02341   1.02507   1.02935   1.03463
 Alpha virt. eigenvalues --    1.03619   1.03964   1.04488   1.05279   1.05631
 Alpha virt. eigenvalues --    1.05903   1.06052   1.06705   1.07369   1.08102
 Alpha virt. eigenvalues --    1.08465   1.09289   1.09985   1.10216   1.10736
 Alpha virt. eigenvalues --    1.10935   1.11356   1.11642   1.11981   1.12211
 Alpha virt. eigenvalues --    1.12577   1.12991   1.13806   1.13896   1.14490
 Alpha virt. eigenvalues --    1.15033   1.15236   1.15442   1.16391   1.16780
 Alpha virt. eigenvalues --    1.17304   1.17553   1.17932   1.18357   1.18551
 Alpha virt. eigenvalues --    1.19099   1.19229   1.19762   1.19954   1.20252
 Alpha virt. eigenvalues --    1.20631   1.20875   1.21157   1.21557   1.21779
 Alpha virt. eigenvalues --    1.22113   1.22245   1.22776   1.22872   1.23085
 Alpha virt. eigenvalues --    1.23320   1.23390   1.23510   1.23597   1.23799
 Alpha virt. eigenvalues --    1.24308   1.24542   1.24917   1.25676   1.26354
 Alpha virt. eigenvalues --    1.26653   1.27005   1.27357   1.27982   1.28540
 Alpha virt. eigenvalues --    1.28617   1.29243   1.29817   1.30070   1.30109
 Alpha virt. eigenvalues --    1.30387   1.30868   1.30959   1.31215   1.31421
 Alpha virt. eigenvalues --    1.31650   1.32041   1.32416   1.33152   1.33873
 Alpha virt. eigenvalues --    1.33943   1.34119   1.34462   1.34834   1.35170
 Alpha virt. eigenvalues --    1.35598   1.35793   1.36097   1.36192   1.36254
 Alpha virt. eigenvalues --    1.36773   1.37024   1.37263   1.37802   1.37920
 Alpha virt. eigenvalues --    1.38392   1.38413   1.38569   1.38782   1.38988
 Alpha virt. eigenvalues --    1.39420   1.39826   1.40120   1.40385   1.41321
 Alpha virt. eigenvalues --    1.41475   1.41664   1.41834   1.42195   1.42369
 Alpha virt. eigenvalues --    1.42545   1.43298   1.43579   1.43741   1.44277
 Alpha virt. eigenvalues --    1.44693   1.44955   1.45022   1.45107   1.45332
 Alpha virt. eigenvalues --    1.46365   1.46569   1.46705   1.47070   1.48161
 Alpha virt. eigenvalues --    1.48873   1.49535   1.50462   1.50997   1.51771
 Alpha virt. eigenvalues --    1.52300   1.53029   1.53077   1.53774   1.54201
 Alpha virt. eigenvalues --    1.55519   1.56094   1.57248   1.58154   1.59112
 Alpha virt. eigenvalues --    1.59528   1.60874   1.61330   1.61768   1.62141
 Alpha virt. eigenvalues --    1.62718   1.62937   1.63558   1.63620   1.63917
 Alpha virt. eigenvalues --    1.64238   1.65221   1.66014   1.66148   1.66610
 Alpha virt. eigenvalues --    1.67466   1.67647   1.68996   1.69467   1.69516
 Alpha virt. eigenvalues --    1.69903   1.70178   1.70390   1.71099   1.71494
 Alpha virt. eigenvalues --    1.71703   1.72005   1.73183   1.73255   1.73642
 Alpha virt. eigenvalues --    1.73960   1.74188   1.74536   1.74917   1.75661
 Alpha virt. eigenvalues --    1.75825   1.75929   1.76178   1.76223   1.76389
 Alpha virt. eigenvalues --    1.76422   1.76492   1.76605   1.76720   1.76790
 Alpha virt. eigenvalues --    1.76892   1.76952   1.77200   1.77612   1.77865
 Alpha virt. eigenvalues --    1.78066   1.78255   1.78487   1.78575   1.78946
 Alpha virt. eigenvalues --    1.79357   1.80138   1.80326   1.81206   1.81359
 Alpha virt. eigenvalues --    1.81422   1.81627   1.81722   1.81824   1.81948
 Alpha virt. eigenvalues --    1.82370   1.82425   1.82977   1.83140   1.83911
 Alpha virt. eigenvalues --    1.84497   1.84910   1.85409   1.85689   1.85747
 Alpha virt. eigenvalues --    1.85956   1.86210   1.86250   1.86374   1.86552
 Alpha virt. eigenvalues --    1.86875   1.87148   1.87305   1.87540   1.87632
 Alpha virt. eigenvalues --    1.88049   1.88449   1.88699   1.89610   1.89949
 Alpha virt. eigenvalues --    1.90763   1.91467   1.91909   1.92225   1.92635
 Alpha virt. eigenvalues --    1.93068   1.93523   1.94644   1.94870   1.95362
 Alpha virt. eigenvalues --    1.95826   1.96038   1.96282   1.96674   1.96860
 Alpha virt. eigenvalues --    1.97157   1.97530   1.97797   1.98231   1.99356
 Alpha virt. eigenvalues --    1.99776   2.00310   2.01391   2.02012   2.02825
 Alpha virt. eigenvalues --    2.03255   2.04021   2.04449   2.04848   2.05102
 Alpha virt. eigenvalues --    2.05498   2.05842   2.06013   2.06053   2.06202
 Alpha virt. eigenvalues --    2.06985   2.07311   2.07797   2.08036   2.08516
 Alpha virt. eigenvalues --    2.09130   2.09531   2.10086   2.10168   2.11258
 Alpha virt. eigenvalues --    2.11641   2.12280   2.12518   2.13418   2.14380
 Alpha virt. eigenvalues --    2.14977   2.15101   2.15917   2.16417   2.16575
 Alpha virt. eigenvalues --    2.16823   2.16912   2.17206   2.17364   2.17595
 Alpha virt. eigenvalues --    2.17625   2.17764   2.18732   2.19470   2.20263
 Alpha virt. eigenvalues --    2.20425   2.21087   2.21215   2.21292   2.21781
 Alpha virt. eigenvalues --    2.22955   2.23118   2.23771   2.24043   2.24408
 Alpha virt. eigenvalues --    2.24759   2.24967   2.25201   2.25949   2.26074
 Alpha virt. eigenvalues --    2.26619   2.26982   2.27483   2.27854   2.28466
 Alpha virt. eigenvalues --    2.28684   2.28767   2.28976   2.29141   2.29808
 Alpha virt. eigenvalues --    2.30399   2.30882   2.32071   2.32157   2.32334
 Alpha virt. eigenvalues --    2.32580   2.32651   2.33194   2.33368   2.33492
 Alpha virt. eigenvalues --    2.33699   2.33820   2.33946   2.34861   2.35055
 Alpha virt. eigenvalues --    2.36104   2.36221   2.36323   2.36376   2.36513
 Alpha virt. eigenvalues --    2.36745   2.36915   2.37156   2.37796   2.38228
 Alpha virt. eigenvalues --    2.39341   2.39452   2.39633   2.40297   2.40483
 Alpha virt. eigenvalues --    2.41283   2.41854   2.42400   2.42700   2.42881
 Alpha virt. eigenvalues --    2.43393   2.43954   2.44576   2.45188   2.45267
 Alpha virt. eigenvalues --    2.46263   2.46693   2.47031   2.47772   2.47989
 Alpha virt. eigenvalues --    2.48863   2.49106   2.49840   2.50048   2.50603
 Alpha virt. eigenvalues --    2.51008   2.51157   2.51359   2.52020   2.52438
 Alpha virt. eigenvalues --    2.53317   2.53713   2.54002   2.54213   2.54447
 Alpha virt. eigenvalues --    2.54729   2.54916   2.55247   2.55329   2.55524
 Alpha virt. eigenvalues --    2.55848   2.56248   2.56771   2.57148   2.57449
 Alpha virt. eigenvalues --    2.57935   2.58742   2.59588   2.60016   2.60623
 Alpha virt. eigenvalues --    2.61262   2.62138   2.62553   2.63347   2.63723
 Alpha virt. eigenvalues --    2.64313   2.65129   2.65522   2.66274   2.66730
 Alpha virt. eigenvalues --    2.68161   2.68416   2.69447   2.70515   2.71143
 Alpha virt. eigenvalues --    2.71935   2.72534   2.72807   2.73462   2.73833
 Alpha virt. eigenvalues --    2.74322   2.74975   2.75051   2.75379   2.75725
 Alpha virt. eigenvalues --    2.75907   2.77649   2.77712   2.78283   2.79608
 Alpha virt. eigenvalues --    2.80246   2.81216   2.81315   2.81425   2.81967
 Alpha virt. eigenvalues --    2.83634   2.85062   2.85692   2.86755   2.87367
 Alpha virt. eigenvalues --    2.88404   2.89108   2.89688   2.91910   2.92057
 Alpha virt. eigenvalues --    2.94211   2.94760   2.95004   2.95574   2.96094
 Alpha virt. eigenvalues --    2.97077   2.97721   2.97925   2.98008   2.98530
 Alpha virt. eigenvalues --    2.99487   3.00605   3.01161   3.04477   3.04749
 Alpha virt. eigenvalues --    3.05530   3.05648   3.07038   3.07613   3.08400
 Alpha virt. eigenvalues --    3.08804   3.09119   3.10310   3.10482   3.10955
 Alpha virt. eigenvalues --    3.11282   3.11700   3.14039   3.14719   3.15063
 Alpha virt. eigenvalues --    3.15297   3.15700   3.15903   3.15930   3.16286
 Alpha virt. eigenvalues --    3.18588   3.19994   3.21272   3.23096   3.26132
 Alpha virt. eigenvalues --    3.28280   3.31918   3.35740   3.36591   3.37119
 Alpha virt. eigenvalues --    3.37446   3.37511   3.38304   3.38905   3.39405
 Alpha virt. eigenvalues --    3.41412   3.49582   3.49814   3.49952   3.58513
 Alpha virt. eigenvalues --    3.60552   3.61168   3.74463   3.76046   3.76627
 Alpha virt. eigenvalues --    3.78148  12.94673
          Condensed to atoms (all electrons):
 Mulliken charges:
               1
     1  C    0.272038
     2  C    0.302247
     3  C   -0.100985
     4  C    0.295041
     5  C    0.292207
     6  C    0.099980
     7  C    0.263769
     8  C    0.302120
     9  C   -0.110900
    10  C    0.288303
    11  C   -0.138517
    12  C    0.294531
    13  H    0.107787
    14  H    0.101794
    15  H    0.102972
    16  N   -0.620324
    17  N   -0.614833
    18  N   -0.608888
    19  N   -0.610235
    20  C   -0.110289
    21  H    0.101413
    22  C   -0.154282
    23  H    0.109731
    24  C    0.100317
    25  C   -0.102073
    26  H    0.101863
    27  C    0.203502
    28  C    0.009823
    29  C    0.007330
    30  C   -0.004682
    31  C   -0.238986
    32  C    0.346965
    33  C    0.351320
    34  C    0.275234
    35  C    0.276159
    36  C    0.289594
    37  C   -0.239964
    38  C    0.349379
    39  C    0.345858
    40  C    0.275535
    41  C    0.274376
    42  C    0.289003
    43  C   -0.247489
    44  C    0.348954
    45  C    0.351816
    46  C    0.274715
    47  C    0.275763
    48  C    0.289636
    49  Ni   0.531866
    50  C   -0.342345
    51  C   -0.051950
    52  H    0.125868
    53  C   -0.248545
    54  C   -0.067900
    55  H    0.105200
    56  F   -0.282971
    57  F   -0.285891
    58  F   -0.282376
    59  F   -0.286386
    60  F   -0.286167
    61  F   -0.282487
    62  F   -0.285873
    63  F   -0.282460
    64  F   -0.286681
    65  F   -0.286791
    66  F   -0.286114
    67  F   -0.286330
    68  F   -0.282248
    69  F   -0.285585
    70  F   -0.282622
    71  H    0.097156
    72  H    0.110402
    73  C   -0.017686
    74  C   -0.067485
    75  C   -0.284100
    76  H    0.138091
    77  S    0.272726
    78  S    0.244979
    79  C   -0.286248
    80  H    0.128089
    81  O   -0.517906
    82  H    0.332142
 Sum of Mulliken charges =   0.00000
 Mulliken charges with hydrogens summed into heavy atoms:
               1
     1  C    0.272038
     2  C    0.302247
     3  C    0.001987
     4  C    0.295041
     5  C    0.292207
     6  C    0.099980
     7  C    0.263769
     8  C    0.302120
     9  C   -0.009106
    10  C    0.288303
    11  C   -0.030730
    12  C    0.294531
    16  N   -0.620324
    17  N   -0.614833
    18  N   -0.608888
    19  N   -0.610235
    20  C   -0.008876
    22  C   -0.044551
    24  C    0.100317
    25  C   -0.000210
    27  C    0.203502
    28  C    0.009823
    29  C    0.007330
    30  C   -0.004682
    31  C   -0.238986
    32  C    0.346965
    33  C    0.351320
    34  C    0.275234
    35  C    0.276159
    36  C    0.289594
    37  C   -0.239964
    38  C    0.349379
    39  C    0.345858
    40  C    0.275535
    41  C    0.274376
    42  C    0.289003
    43  C   -0.247489
    44  C    0.348954
    45  C    0.351816
    46  C    0.274715
    47  C    0.275763
    48  C    0.289636
    49  Ni   0.531866
    50  C   -0.342345
    51  C    0.058452
    53  C   -0.248545
    54  C    0.029256
    56  F   -0.282971
    57  F   -0.285891
    58  F   -0.282376
    59  F   -0.286386
    60  F   -0.286167
    61  F   -0.282487
    62  F   -0.285873
    63  F   -0.282460
    64  F   -0.286681
    65  F   -0.286791
    66  F   -0.286114
    67  F   -0.286330
    68  F   -0.282248
    69  F   -0.285585
    70  F   -0.282622
    73  C    0.087514
    74  C    0.058383
    75  C   -0.146009
    77  S    0.272726
    78  S    0.244979
    79  C   -0.158159
    81  O   -0.185765
 Electronic spatial extent (au):  <R**2>=          65416.2749
 Charge=              0.0000 electrons
 Dipole moment (field-independent basis, Debye):
    X=             -1.2697    Y=             -4.1544    Z=             -0.9119  Tot=              4.4388
 Quadrupole moment (field-independent basis, Debye-Ang):
   XX=           -397.6220   YY=           -352.1776   ZZ=           -406.6070
   XY=              6.5014   XZ=              4.2315   YZ=             13.9595
 Traceless Quadrupole moment (field-independent basis, Debye-Ang):
   XX=            -12.1531   YY=             33.2913   ZZ=            -21.1382
   XY=              6.5014   XZ=              4.2315   YZ=             13.9595
 Octapole moment (field-independent basis, Debye-Ang**2):
  XXX=            -18.5902  YYY=           -264.7545  ZZZ=             16.2558  XYY=            -38.1776
  XXY=             24.6714  XXZ=            -16.5305  XZZ=             -2.0170  YZZ=             24.4273
  YYZ=            -40.3317  XYZ=             12.9327
 Hexadecapole moment (field-independent basis, Debye-Ang**3):
 XXXX=         -41464.9342 YYYY=         -33914.5429 ZZZZ=          -5129.0497 XXXY=           -123.2362
 XXXZ=             46.4712 YYYX=            425.0915 YYYZ=            366.8211 ZZZX=             15.6400
 ZZZY=           -110.2911 XXYY=         -11448.6385 XXZZ=          -7766.8964 YYZZ=          -6843.7998
 XXYZ=            221.0923 YYXZ=            166.2043 ZZXY=             -9.5733
 N-N= 1.172658665803D+04 E-N=-3.409713182566D+04  KE= 4.432135128299D+03
 Unable to Open any file for archive entry.
 1\1\GINC-CCNN225\FOpt\RB3LYP\GenECP\C46H13F15N4Ni1O1S2\CPI\26-Oct-2021
 \0\\# opt b3lyp/genecp geom=connectivity scf=maxcyc=1000\\title\\0,1\C
 ,-2.3491623411,-2.0115359832,-1.4518708376\C,-2.5178881826,3.922972607
 6,-0.8461341239\C,-1.8212991202,4.8151257524,-2.7909991171\C,-1.808319
 5553,3.3717444164,-2.8491023416\C,-1.8472867836,1.2583610682,-4.072739
 9746\C,-2.4725112827,-0.7021824158,-5.0253038385\C,-2.5431395841,-0.76
 20641732,-3.5717319634\C,-2.6872226571,2.7009331595,1.2543645067\C,-2.
 7162047924,2.6544194232,2.6983555851\C,-1.8587146967,-1.4241571551,0.6
 058316835\C,-1.814427397,-2.8479628681,0.5646949855\C,-2.08425254,0.67
 3284501,1.8420394328\H,-1.5770118925,-3.4966319545,1.3947291488\H,-2.9
 909051179,3.4763261316,3.3421674803\H,-1.5236389956,5.4731996803,-3.59
 34977946\N,-2.1834997102,0.4519316402,-3.0183980514\N,-2.1522546694,-0
 .9193495644,-0.6364675845\N,-2.2150422356,2.8447014446,-1.6374552303\N
 ,-2.3282728947,1.4771783895,0.7444935663\C,-2.3078182244,5.1547311939,
 -1.5725875563\H,-2.4728909774,6.144966323,-1.1743635103\C,-1.981292648
 2,0.5525833508,-5.3020017444\H,-1.8069309285,0.9686632785,-6.282966016
 9\C,-2.1336925974,-3.2374344137,-0.7129573892\C,-2.2954838061,1.418363
 5857,3.0606163588\H,-2.1622345092,1.0294839892,4.0590317179\C,-2.70799
 60635,-1.9238843842,-2.8097196489\C,-1.7741501278,-0.675078107,1.79220
 52114\C,-1.5606914751,2.633602465,-3.9939675558\C,-2.8495536391,3.8687
 953796,0.507961398\C,-1.0907878077,3.3228011588,-5.2307983556\C,-1.923
 9574512,4.1528415666,-5.9884291685\C,0.2156944943,3.1366832755,-5.6966
 217531\C,-1.4797762806,4.7823427734,-7.1492263117\C,0.6808562684,3.751
 8862174,-6.8564186798\C,-0.1721249155,4.5786541309,-7.5842730977\C,-3.
 2653571729,5.1285084292,1.1906839834\C,-4.5433137461,5.6622915232,0.98
 9260071\C,-2.4067737405,5.8392309673,2.0365852673\C,-4.9560221614,6.84
 33792341,1.6022576772\C,-2.7984316093,7.0191895935,2.6649731634\C,-4.0
 785991322,7.5228076039,2.4442670247\C,-1.4444148618,-1.3972860618,3.05
 65700117\C,-2.4249382541,-1.7455261401,3.9910825566\C,-0.1278066729,-1
 .772365238,3.3445042475\C,-2.1149482483,-2.4264218229,5.1663487947\C,0
 .2058367288,-2.4580731875,4.5104183153\C,-0.7935715982,-2.784687159,5.
 4244551438\Ni,-2.2254282173,0.9654147179,-1.134821437\C,-2.1965554107,
 -4.6295853604,-1.173228521\C,-1.7945581275,-6.6518002273,-2.2970955876
 \H,-0.8938911926,-4.7162970835,-2.9046136853\C,-2.780656236,-1.6918749
 621,-6.0547201827\C,-3.8434576595,-3.2586184501,-7.436850466\H,-4.6184
 297606,-2.6526191561,-5.4514392713\F,1.0607113478,2.3502985098,-5.0180
 217273\F,1.9369978803,3.5584684915,-7.2718340579\F,0.2630119788,5.1756
 90313,-8.6959640722\F,-2.3004254456,5.5721790633,-7.8502511879\F,-3.19
 04978312,4.3628492901,-5.6048618402\F,-5.4121204583,5.0324747208,0.188
 46523\F,-6.1855320507,7.3251400987,1.3918268035\F,-4.4633200643,8.6542
 672278,3.0389611011\F,-1.9536722766,7.6740971188,3.4691503037\F,-1.165
 3733314,5.38825324,2.2636430083\F,-3.706141166,-1.4213227438,3.7701590
 176\F,-3.0750558143,-2.7430670047,6.0419568641\F,-0.4857403655,-3.4394
 264847,6.5461478091\F,1.4743116574,-2.8002327434,4.7586930792\F,0.8550
 16628,-1.4718753385,2.4861918802\H,-4.6092485989,-3.9708161223,-7.7229
 525646\H,-1.3676509609,-7.2976829828,-3.0554502258\C,-3.8494241884,-2.
 5467524109,-6.2044570186\C,-1.5493139889,-5.2489735394,-2.2244924199\C
 ,-2.6166611206,-7.0983212684,-1.2989357914\H,-2.9650776881,-8.10611018
 46,-1.1192407558\S,-3.1184466784,-5.8093283012,-0.2577018818\S,-1.7443
 571969,-1.7775382859,-7.473620259\C,-2.769057672,-2.9500636289,-8.2276
 172342\H,-2.5130626408,-3.3501052147,-9.1989930597\O,-3.1521533134,-3.
 010856467,-3.4717864714\H,-3.0989971103,-3.8025978068,-2.9088177345\\V
 ersion=ES64L-G16RevC.01\State=1-A\HF=-4518.1073525\RMSD=6.524e-09\RMSF
 =1.834e-06\Dipole=-0.2008353,-1.702481,-0.3332154\Quadrupole=-17.27710
 68,22.8753994,-5.5982926,6.7520303,0.3338317,11.8040642\PG=C01 [X(C46H
 13F15N4Ni1O1S2)]\\@
 The archive entry for this job was punched.


 BOOKS ARE LIGHTHOUSES ERECTED IN THE GREAT SEA OF TIME.
     -- E.P.WHIPPLE
 Job cpu time:       1 days 15 hours 50 minutes 35.0 seconds.
 Elapsed time:       0 days  2 hours 29 minutes 50.6 seconds.
 File lengths (MBytes):  RWF=    649 Int=      0 D2E=      0 Chk=     83 Scr=      1
 Normal termination of Gaussian 16 at Tue Oct 26 19:29:13 2021.
