 Entering Gaussian System, Link 0=/local/apl/lx/g16c01/g16/._.g16
 Initial command:
 /local/apl/lx/g16c01/g16/l1.exe "/work/users/cpi/4884436.cccms1/Gau-235184.inp" -scrdir="/work/users/cpi/4884436.cccms1/"
 Default CPUs for threads: 0,1,2,3,4,5,6,7,8,9,10,11,12,13,14,15,16,17
 Default is to use a total of  18 processors:
                               18 via shared-memory
                                1 via Linda
 Entering Link 1 = /local/apl/lx/g16c01/g16/l1.exe PID=    235185.
  
 Copyright (c) 1988-2019, Gaussian, Inc.  All Rights Reserved.
  
 This is part of the Gaussian(R) 16 program.  It is based on
 the Gaussian(R) 09 system (copyright 2009, Gaussian, Inc.),
 the Gaussian(R) 03 system (copyright 2003, Gaussian, Inc.),
 the Gaussian(R) 98 system (copyright 1998, Gaussian, Inc.),
 the Gaussian(R) 94 system (copyright 1995, Gaussian, Inc.),
 the Gaussian 92(TM) system (copyright 1992, Gaussian, Inc.),
 the Gaussian 90(TM) system (copyright 1990, Gaussian, Inc.),
 the Gaussian 88(TM) system (copyright 1988, Gaussian, Inc.),
 the Gaussian 86(TM) system (copyright 1986, Carnegie Mellon
 University), and the Gaussian 82(TM) system (copyright 1983,
 Carnegie Mellon University). Gaussian is a federally registered
 trademark of Gaussian, Inc.
  
 This software contains proprietary and confidential information,
 including trade secrets, belonging to Gaussian, Inc.
  
 This software is provided under written license and may be
 used, copied, transmitted, or stored only in accord with that
 written license.
  
 The following legend is applicable only to US Government
 contracts under FAR:
  
                    RESTRICTED RIGHTS LEGEND
  
 Use, reproduction and disclosure by the US Government is
 subject to restrictions as set forth in subparagraphs (a)
 and (c) of the Commercial Computer Software - Restricted
 Rights clause in FAR 52.227-19.
  
 Gaussian, Inc.
 340 Quinnipiac St., Bldg. 40, Wallingford CT 06492
  
  
 ---------------------------------------------------------------
 Warning -- This program may not be used in any manner that
 competes with the business of Gaussian, Inc. or will provide
 assistance to any competitor of Gaussian, Inc.  The licensee
 of this program is prohibited from giving any competitor of
 Gaussian, Inc. access to this program.  By using this program,
 the user acknowledges that Gaussian, Inc. is engaged in the
 business of creating and licensing software in the field of
 computational chemistry and represents and warrants to the
 licensee that it is not a competitor of Gaussian, Inc. and that
 it will not use this program in any manner prohibited above.
 ---------------------------------------------------------------
  

 Cite this work as:
 Gaussian 16, Revision C.01,
 M. J. Frisch, G. W. Trucks, H. B. Schlegel, G. E. Scuseria, 
 M. A. Robb, J. R. Cheeseman, G. Scalmani, V. Barone, 
 G. A. Petersson, H. Nakatsuji, X. Li, M. Caricato, A. V. Marenich, 
 J. Bloino, B. G. Janesko, R. Gomperts, B. Mennucci, H. P. Hratchian, 
 J. V. Ortiz, A. F. Izmaylov, J. L. Sonnenberg, D. Williams-Young, 
 F. Ding, F. Lipparini, F. Egidi, J. Goings, B. Peng, A. Petrone, 
 T. Henderson, D. Ranasinghe, V. G. Zakrzewski, J. Gao, N. Rega, 
 G. Zheng, W. Liang, M. Hada, M. Ehara, K. Toyota, R. Fukuda, 
 J. Hasegawa, M. Ishida, T. Nakajima, Y. Honda, O. Kitao, H. Nakai, 
 T. Vreven, K. Throssell, J. A. Montgomery, Jr., J. E. Peralta, 
 F. Ogliaro, M. J. Bearpark, J. J. Heyd, E. N. Brothers, K. N. Kudin, 
 V. N. Staroverov, T. A. Keith, R. Kobayashi, J. Normand, 
 K. Raghavachari, A. P. Rendell, J. C. Burant, S. S. Iyengar, 
 J. Tomasi, M. Cossi, J. M. Millam, M. Klene, C. Adamo, R. Cammi, 
 J. W. Ochterski, R. L. Martin, K. Morokuma, O. Farkas, 
 J. B. Foresman, and D. J. Fox, Gaussian, Inc., Wallingford CT, 2019.
 
 ******************************************
 Gaussian 16:  ES64L-G16RevC.01  3-Jul-2019
                25-Oct-2021 
 ******************************************
 %mem=100GB
 %nprocshare=16
 Will use up to   16 processors via shared memory.
 %chk=Ni_3C6F5_Por_dithiophene_OH.chk
 ----------------------------------------------------
 # opt b3lyp/genecp geom=connectivity scf=maxcyc=1000
 ----------------------------------------------------
 1/18=20,19=15,26=3,38=1,57=2/1,3;
 2/9=110,12=2,17=6,18=5,40=1/2;
 3/5=7,11=2,16=1,17=8,25=1,30=1,71=1,74=-5/1,2,3;
 4//1;
 5/5=2,7=1000,38=5/2;
 6/7=2,8=2,9=2,10=2,28=1/1;
 7//1,2,3,16;
 1/18=20,19=15,26=3/3(2);
 2/9=110/2;
 99//99;
 2/9=110/2;
 3/5=7,6=1,11=2,16=1,17=8,25=1,30=1,71=1,74=-5,82=7/1,2,3;
 4/5=5,16=3,69=1/1;
 5/5=2,7=1000,38=5/2;
 7//1,2,3,16;
 1/18=20,19=15,26=3/3(-5);
 2/9=110/2;
 6/7=2,8=2,9=2,10=2,19=2,28=1/1;
 99/9=1/99;
 -----
 title
 -----
 Symbolic Z-matrix:
 Charge =  0 Multiplicity = 1
 C                    -1.24967  -2.33664  -0.92263 
 C                     1.20955   2.7929   -0.29982 
 C                     3.4644    2.57969   0.29687 
 C                     2.75834   1.23611   0.24225 
 C                     2.65026  -1.06998   0.12712 
 C                     2.35638  -3.09248  -0.71858 
 C                     1.18761  -2.3736   -0.9094 
 C                    -1.14887   2.86192  -0.20508 
 C                    -2.48889   3.58896   0.00936 
 C                    -2.68511  -0.99655   0.11247 
 C                    -3.28508  -2.24465   0.013 
 C                    -2.7325    1.314     0.28681 
 H                    -4.2332   -2.53933   0.40742 
 H                    -2.65123   4.63971  -0.09204 
 H                     4.47479   2.75715   0.59957 
 N                     1.30348  -1.15183  -0.38376 
 N                    -1.33322  -1.11089  -0.38886 
 N                     1.34608   1.47561  -0.1357 
 N                    -1.31317   1.52164  -0.06699 
 C                     2.56853   3.49739  -0.10175 
 H                     2.75583   4.54019  -0.22997 
 C                     3.22553  -2.32538   0.03145 
 H                     4.16173  -2.64076   0.43802 
 C                    -2.43062  -3.03262  -0.73371 
 C                    -3.41135   2.67612   0.35679 
 H                    -4.42579   2.86667   0.63103 
 C                    -0.03336  -2.9204   -1.56259 
 C                    -3.316     0.13678   0.52357 
 C                     3.31096   0.05231   0.51845 
 C                     0.04199   3.48949  -0.51409 
 C                     4.66341  -0.07395   1.21603 
 C                     5.80653   0.17391   0.46692 
 C                     4.76003  -0.43955   2.56807 
 C                     7.06535  -0.00258   1.04175 
 C                     6.02189  -0.52273   3.17174 
 C                     7.17586  -0.32991   2.3999 
 C                     0.06913   4.94577  -1.01713 
 C                     0.318     5.23316  -2.37522 
 C                    -0.15531   5.98579  -0.11645 
 C                     0.29509   6.56503  -2.82159 
 C                    -0.08489   7.31608  -0.54766 
 C                     0.11712   7.60655  -1.90249 
 C                    -4.68102   0.03666   1.19034 
 C                    -5.80908   0.30581   0.42581 
 C                    -4.7979   -0.32691   2.53827 
 C                    -7.07731   0.15703   0.98736 
 C                    -6.06575  -0.38122   3.12882 
 C                    -7.20782  -0.16456   2.34523 
 Ni                    0.00555   0.1815   -0.26237 
 C                    -2.74528  -4.44185  -1.21195 
 C                    -2.96199  -6.42788  -2.55272 
 H                    -1.58044  -4.60848  -3.0246 
 C                     2.64267  -4.50661  -1.19297 
 C                     2.82654  -6.492    -2.53899 
 H                     1.48901  -4.64146  -3.01674 
 F                     3.64457  -0.66692   3.29822 
 F                     6.12707  -0.7788    4.4942 
 F                     8.39454  -0.45917   2.96289 
 F                     8.17153   0.13226   0.28284 
 F                     5.68902   0.53458  -0.82737 
 F                     0.53159   4.23306  -3.25878 
 F                     0.43466   6.84474  -4.13633 
 F                     0.14024   8.89007  -2.3212 
 F                    -0.20187   8.31939   0.34687 
 F                    -0.39377   5.70564   1.18123 
 F                    -5.67055   0.65948  -0.86906 
 F                    -8.17317   0.31295   0.21704 
 F                    -8.43373  -0.2651    2.89718 
 F                    -6.18806  -0.63186   4.45036 
 F                    -3.69382  -0.57897   3.27704 
 H                     2.61977  -7.12971  -3.37102 
 H                    -2.76358  -7.07189  -3.38242 
 C                     2.18305  -5.09303  -2.33391 
 C                    -2.28994  -5.04222  -2.34629 
 C                    -3.84959  -6.722    -1.56145 
 H                    -4.50038  -7.56538  -1.55142 
 S                    -3.79502  -5.51256  -0.28762 
 S                     3.66391  -5.59981  -0.26612 
 C                     3.70064  -6.8073   -1.54203 
 H                     4.33201  -7.66495  -1.52858 
 O                    -0.04236  -3.94008  -2.56513 
 H                    -0.03784  -3.53418  -3.43509 
 

 GradGradGradGradGradGradGradGradGradGradGradGradGradGradGradGradGradGrad
 Berny optimization.
 Initialization pass.
                           ----------------------------
                           !    Initial Parameters    !
                           ! (Angstroms and Degrees)  !
 --------------------------                            --------------------------
 ! Name  Definition              Value          Derivative Info.                !
 --------------------------------------------------------------------------------
 ! R1    R(1,17)                 1.3395         estimate D2E/DX2                !
 ! R2    R(1,24)                 1.3837         estimate D2E/DX2                !
 ! R3    R(1,27)                 1.4932         estimate D2E/DX2                !
 ! R4    R(2,18)                 1.3345         estimate D2E/DX2                !
 ! R5    R(2,20)                 1.5435         estimate D2E/DX2                !
 ! R6    R(2,30)                 1.3764         estimate D2E/DX2                !
 ! R7    R(3,4)                  1.5188         estimate D2E/DX2                !
 ! R8    R(3,15)                 1.0696         estimate D2E/DX2                !
 ! R9    R(3,20)                 1.343          estimate D2E/DX2                !
 ! R10   R(4,18)                 1.4814         estimate D2E/DX2                !
 ! R11   R(4,29)                 1.3353         estimate D2E/DX2                !
 ! R12   R(5,16)                 1.4427         estimate D2E/DX2                !
 ! R13   R(5,22)                 1.3842         estimate D2E/DX2                !
 ! R14   R(5,29)                 1.3599         estimate D2E/DX2                !
 ! R15   R(6,7)                  1.3854         estimate D2E/DX2                !
 ! R16   R(6,22)                 1.3807         estimate D2E/DX2                !
 ! R17   R(6,53)                 1.5188         estimate D2E/DX2                !
 ! R18   R(7,16)                 1.3351         estimate D2E/DX2                !
 ! R19   R(7,27)                 1.4888         estimate D2E/DX2                !
 ! R20   R(8,9)                  1.5395         estimate D2E/DX2                !
 ! R21   R(8,19)                 1.3574         estimate D2E/DX2                !
 ! R22   R(8,30)                 1.3811         estimate D2E/DX2                !
 ! R23   R(9,14)                 1.068          estimate D2E/DX2                !
 ! R24   R(9,25)                 1.3435         estimate D2E/DX2                !
 ! R25   R(10,11)                1.3884         estimate D2E/DX2                !
 ! R26   R(10,17)                1.4464         estimate D2E/DX2                !
 ! R27   R(10,28)                1.3607         estimate D2E/DX2                !
 ! R28   R(11,13)                1.0683         estimate D2E/DX2                !
 ! R29   R(11,24)                1.3815         estimate D2E/DX2                !
 ! R30   R(12,19)                1.4774         estimate D2E/DX2                !
 ! R31   R(12,25)                1.5235         estimate D2E/DX2                !
 ! R32   R(12,28)                1.3351         estimate D2E/DX2                !
 ! R33   R(16,49)                1.8647         estimate D2E/DX2                !
 ! R34   R(17,49)                1.8651         estimate D2E/DX2                !
 ! R35   R(18,49)                1.8676         estimate D2E/DX2                !
 ! R36   R(19,49)                1.8903         estimate D2E/DX2                !
 ! R37   R(20,21)                1.0672         estimate D2E/DX2                !
 ! R38   R(22,23)                1.0683         estimate D2E/DX2                !
 ! R39   R(24,50)                1.5211         estimate D2E/DX2                !
 ! R40   R(25,26)                1.068          estimate D2E/DX2                !
 ! R41   R(27,81)                1.43           estimate D2E/DX2                !
 ! R42   R(28,43)                1.5225         estimate D2E/DX2                !
 ! R43   R(29,31)                1.527          estimate D2E/DX2                !
 ! R44   R(30,37)                1.5409         estimate D2E/DX2                !
 ! R45   R(31,32)                1.389          estimate D2E/DX2                !
 ! R46   R(31,33)                1.4039         estimate D2E/DX2                !
 ! R47   R(32,34)                1.3951         estimate D2E/DX2                !
 ! R48   R(32,60)                1.3487         estimate D2E/DX2                !
 ! R49   R(33,35)                1.4013         estimate D2E/DX2                !
 ! R50   R(33,56)                1.3524         estimate D2E/DX2                !
 ! R51   R(34,36)                1.4014         estimate D2E/DX2                !
 ! R52   R(34,59)                1.3482         estimate D2E/DX2                !
 ! R53   R(35,36)                1.4016         estimate D2E/DX2                !
 ! R54   R(35,57)                1.3511         estimate D2E/DX2                !
 ! R55   R(36,58)                1.3486         estimate D2E/DX2                !
 ! R56   R(37,38)                1.4103         estimate D2E/DX2                !
 ! R57   R(37,39)                1.394          estimate D2E/DX2                !
 ! R58   R(38,40)                1.4049         estimate D2E/DX2                !
 ! R59   R(38,61)                1.3515         estimate D2E/DX2                !
 ! R60   R(39,41)                1.4002         estimate D2E/DX2                !
 ! R61   R(39,65)                1.3488         estimate D2E/DX2                !
 ! R62   R(40,42)                1.4004         estimate D2E/DX2                !
 ! R63   R(40,62)                1.3514         estimate D2E/DX2                !
 ! R64   R(41,42)                1.4003         estimate D2E/DX2                !
 ! R65   R(41,64)                1.3493         estimate D2E/DX2                !
 ! R66   R(42,63)                1.3503         estimate D2E/DX2                !
 ! R67   R(43,44)                1.3891         estimate D2E/DX2                !
 ! R68   R(43,45)                1.401          estimate D2E/DX2                !
 ! R69   R(44,46)                1.3949         estimate D2E/DX2                !
 ! R70   R(44,66)                1.3494         estimate D2E/DX2                !
 ! R71   R(45,47)                1.3997         estimate D2E/DX2                !
 ! R72   R(45,70)                1.3522         estimate D2E/DX2                !
 ! R73   R(46,48)                1.4015         estimate D2E/DX2                !
 ! R74   R(46,67)                1.3486         estimate D2E/DX2                !
 ! R75   R(47,48)                1.4019         estimate D2E/DX2                !
 ! R76   R(47,69)                1.3506         estimate D2E/DX2                !
 ! R77   R(48,68)                1.3482         estimate D2E/DX2                !
 ! R78   R(50,74)                1.3618         estimate D2E/DX2                !
 ! R79   R(50,77)                1.7615         estimate D2E/DX2                !
 ! R80   R(51,72)                1.0689         estimate D2E/DX2                !
 ! R81   R(51,74)                1.5538         estimate D2E/DX2                !
 ! R82   R(51,75)                1.3627         estimate D2E/DX2                !
 ! R83   R(52,74)                1.0731         estimate D2E/DX2                !
 ! R84   R(53,73)                1.3627         estimate D2E/DX2                !
 ! R85   R(53,78)                1.7598         estimate D2E/DX2                !
 ! R86   R(54,71)                1.0685         estimate D2E/DX2                !
 ! R87   R(54,73)                1.5535         estimate D2E/DX2                !
 ! R88   R(54,79)                1.3629         estimate D2E/DX2                !
 ! R89   R(55,73)                1.0733         estimate D2E/DX2                !
 ! R90   R(75,76)                1.0653         estimate D2E/DX2                !
 ! R91   R(75,77)                1.7574         estimate D2E/DX2                !
 ! R92   R(78,79)                1.7571         estimate D2E/DX2                !
 ! R93   R(79,80)                1.0651         estimate D2E/DX2                !
 ! R94   R(81,82)                0.96           estimate D2E/DX2                !
 ! A1    A(17,1,24)            110.6473         estimate D2E/DX2                !
 ! A2    A(17,1,27)            125.4021         estimate D2E/DX2                !
 ! A3    A(24,1,27)            123.8527         estimate D2E/DX2                !
 ! A4    A(18,2,20)            110.1629         estimate D2E/DX2                !
 ! A5    A(18,2,30)            127.2673         estimate D2E/DX2                !
 ! A6    A(20,2,30)            122.4022         estimate D2E/DX2                !
 ! A7    A(4,3,15)             126.5917         estimate D2E/DX2                !
 ! A8    A(4,3,20)             106.4821         estimate D2E/DX2                !
 ! A9    A(15,3,20)            126.9253         estimate D2E/DX2                !
 ! A10   A(3,4,18)             108.019          estimate D2E/DX2                !
 ! A11   A(3,4,29)             125.7631         estimate D2E/DX2                !
 ! A12   A(18,4,29)            126.2006         estimate D2E/DX2                !
 ! A13   A(16,5,22)            108.1809         estimate D2E/DX2                !
 ! A14   A(16,5,29)            127.033          estimate D2E/DX2                !
 ! A15   A(22,5,29)            124.5031         estimate D2E/DX2                !
 ! A16   A(7,6,22)             108.5179         estimate D2E/DX2                !
 ! A17   A(7,6,53)             126.8094         estimate D2E/DX2                !
 ! A18   A(22,6,53)            124.6314         estimate D2E/DX2                !
 ! A19   A(6,7,16)             110.3295         estimate D2E/DX2                !
 ! A20   A(6,7,27)             124.1765         estimate D2E/DX2                !
 ! A21   A(16,7,27)            125.453          estimate D2E/DX2                !
 ! A22   A(9,8,19)             110.2903         estimate D2E/DX2                !
 ! A23   A(9,8,30)             124.5462         estimate D2E/DX2                !
 ! A24   A(19,8,30)            125.1563         estimate D2E/DX2                !
 ! A25   A(8,9,14)             125.7092         estimate D2E/DX2                !
 ! A26   A(8,9,25)             108.2271         estimate D2E/DX2                !
 ! A27   A(14,9,25)            126.0611         estimate D2E/DX2                !
 ! A28   A(11,10,17)           107.9393         estimate D2E/DX2                !
 ! A29   A(11,10,28)           124.7526         estimate D2E/DX2                !
 ! A30   A(17,10,28)           127.152          estimate D2E/DX2                !
 ! A31   A(10,11,13)           127.2305         estimate D2E/DX2                !
 ! A32   A(10,11,24)           106.5102         estimate D2E/DX2                !
 ! A33   A(13,11,24)           126.2367         estimate D2E/DX2                !
 ! A34   A(19,12,25)           108.2653         estimate D2E/DX2                !
 ! A35   A(19,12,28)           125.8922         estimate D2E/DX2                !
 ! A36   A(25,12,28)           125.8361         estimate D2E/DX2                !
 ! A37   A(5,16,7)             105.8044         estimate D2E/DX2                !
 ! A38   A(5,16,49)            125.8828         estimate D2E/DX2                !
 ! A39   A(7,16,49)            128.2847         estimate D2E/DX2                !
 ! A40   A(1,17,10)            105.59           estimate D2E/DX2                !
 ! A41   A(1,17,49)            128.0487         estimate D2E/DX2                !
 ! A42   A(10,17,49)           126.3432         estimate D2E/DX2                !
 ! A43   A(2,18,4)             106.7675         estimate D2E/DX2                !
 ! A44   A(2,18,49)            127.0301         estimate D2E/DX2                !
 ! A45   A(4,18,49)            126.1257         estimate D2E/DX2                !
 ! A46   A(8,19,12)            106.2251         estimate D2E/DX2                !
 ! A47   A(8,19,49)            127.2351         estimate D2E/DX2                !
 ! A48   A(12,19,49)           126.5351         estimate D2E/DX2                !
 ! A49   A(2,20,3)             108.2714         estimate D2E/DX2                !
 ! A50   A(2,20,21)            125.8099         estimate D2E/DX2                !
 ! A51   A(3,20,21)            125.8929         estimate D2E/DX2                !
 ! A52   A(5,22,6)             106.2481         estimate D2E/DX2                !
 ! A53   A(5,22,23)            127.2756         estimate D2E/DX2                !
 ! A54   A(6,22,23)            126.4679         estimate D2E/DX2                !
 ! A55   A(1,24,11)            108.3468         estimate D2E/DX2                !
 ! A56   A(1,24,50)            126.8425         estimate D2E/DX2                !
 ! A57   A(11,24,50)           124.7798         estimate D2E/DX2                !
 ! A58   A(9,25,12)            106.8371         estimate D2E/DX2                !
 ! A59   A(9,25,26)            126.6819         estimate D2E/DX2                !
 ! A60   A(12,25,26)           126.4809         estimate D2E/DX2                !
 ! A61   A(1,27,7)             109.6579         estimate D2E/DX2                !
 ! A62   A(1,27,81)            125.0366         estimate D2E/DX2                !
 ! A63   A(7,27,81)            125.0756         estimate D2E/DX2                !
 ! A64   A(10,28,12)           118.569          estimate D2E/DX2                !
 ! A65   A(10,28,43)           119.5546         estimate D2E/DX2                !
 ! A66   A(12,28,43)           121.8379         estimate D2E/DX2                !
 ! A67   A(4,29,5)             118.1028         estimate D2E/DX2                !
 ! A68   A(4,29,31)            122.2994         estimate D2E/DX2                !
 ! A69   A(5,29,31)            119.5748         estimate D2E/DX2                !
 ! A70   A(2,30,8)             117.8158         estimate D2E/DX2                !
 ! A71   A(2,30,37)            120.9431         estimate D2E/DX2                !
 ! A72   A(8,30,37)            121.175          estimate D2E/DX2                !
 ! A73   A(29,31,32)           117.8905         estimate D2E/DX2                !
 ! A74   A(29,31,33)           121.4956         estimate D2E/DX2                !
 ! A75   A(32,31,33)           120.6117         estimate D2E/DX2                !
 ! A76   A(31,32,34)           119.8554         estimate D2E/DX2                !
 ! A77   A(31,32,60)           119.5748         estimate D2E/DX2                !
 ! A78   A(34,32,60)           120.5213         estimate D2E/DX2                !
 ! A79   A(31,33,35)           119.492          estimate D2E/DX2                !
 ! A80   A(31,33,56)           120.4608         estimate D2E/DX2                !
 ! A81   A(35,33,56)           120.0102         estimate D2E/DX2                !
 ! A82   A(32,34,36)           120.002          estimate D2E/DX2                !
 ! A83   A(32,34,59)           119.7194         estimate D2E/DX2                !
 ! A84   A(36,34,59)           120.2763         estimate D2E/DX2                !
 ! A85   A(33,35,36)           119.7349         estimate D2E/DX2                !
 ! A86   A(33,35,57)           120.1994         estimate D2E/DX2                !
 ! A87   A(36,35,57)           120.0642         estimate D2E/DX2                !
 ! A88   A(34,36,35)           120.0589         estimate D2E/DX2                !
 ! A89   A(34,36,58)           119.8815         estimate D2E/DX2                !
 ! A90   A(35,36,58)           120.0597         estimate D2E/DX2                !
 ! A91   A(30,37,38)           120.6676         estimate D2E/DX2                !
 ! A92   A(30,37,39)           119.4272         estimate D2E/DX2                !
 ! A93   A(38,37,39)           119.9052         estimate D2E/DX2                !
 ! A94   A(37,38,40)           119.7549         estimate D2E/DX2                !
 ! A95   A(37,38,61)           120.4416         estimate D2E/DX2                !
 ! A96   A(40,38,61)           119.7622         estimate D2E/DX2                !
 ! A97   A(37,39,41)           120.1154         estimate D2E/DX2                !
 ! A98   A(37,39,65)           119.6774         estimate D2E/DX2                !
 ! A99   A(41,39,65)           120.166          estimate D2E/DX2                !
 ! A100  A(38,40,42)           119.9083         estimate D2E/DX2                !
 ! A101  A(38,40,62)           120.2424         estimate D2E/DX2                !
 ! A102  A(42,40,62)           119.8476         estimate D2E/DX2                !
 ! A103  A(39,41,42)           120.1528         estimate D2E/DX2                !
 ! A104  A(39,41,64)           119.8634         estimate D2E/DX2                !
 ! A105  A(42,41,64)           119.9818         estimate D2E/DX2                !
 ! A106  A(40,42,41)           119.9381         estimate D2E/DX2                !
 ! A107  A(40,42,63)           120.0827         estimate D2E/DX2                !
 ! A108  A(41,42,63)           119.9791         estimate D2E/DX2                !
 ! A109  A(28,43,44)           118.3164         estimate D2E/DX2                !
 ! A110  A(28,43,45)           120.8797         estimate D2E/DX2                !
 ! A111  A(44,43,45)           120.8023         estimate D2E/DX2                !
 ! A112  A(43,44,46)           119.7428         estimate D2E/DX2                !
 ! A113  A(43,44,66)           119.706          estimate D2E/DX2                !
 ! A114  A(46,44,66)           120.5021         estimate D2E/DX2                !
 ! A115  A(43,45,47)           119.4444         estimate D2E/DX2                !
 ! A116  A(43,45,70)           120.3929         estimate D2E/DX2                !
 ! A117  A(47,45,70)           120.1238         estimate D2E/DX2                !
 ! A118  A(44,46,48)           119.9442         estimate D2E/DX2                !
 ! A119  A(44,46,67)           119.7698         estimate D2E/DX2                !
 ! A120  A(48,46,67)           120.2838         estimate D2E/DX2                !
 ! A121  A(45,47,48)           119.7422         estimate D2E/DX2                !
 ! A122  A(45,47,69)           120.1358         estimate D2E/DX2                !
 ! A123  A(48,47,69)           120.1203         estimate D2E/DX2                !
 ! A124  A(46,48,47)           120.0759         estimate D2E/DX2                !
 ! A125  A(46,48,68)           119.897          estimate D2E/DX2                !
 ! A126  A(47,48,68)           120.0271         estimate D2E/DX2                !
 ! A127  A(16,49,17)            89.9849         estimate D2E/DX2                !
 ! A128  A(16,49,18)            90.0153         estimate D2E/DX2                !
 ! A129  A(17,49,19)            89.8577         estimate D2E/DX2                !
 ! A130  A(18,49,19)            90.1421         estimate D2E/DX2                !
 ! A131  A(24,50,74)           126.9538         estimate D2E/DX2                !
 ! A132  A(24,50,77)           121.4302         estimate D2E/DX2                !
 ! A133  A(74,50,77)           111.6158         estimate D2E/DX2                !
 ! A134  A(72,51,74)           124.0659         estimate D2E/DX2                !
 ! A135  A(72,51,75)           123.7462         estimate D2E/DX2                !
 ! A136  A(74,51,75)           112.1825         estimate D2E/DX2                !
 ! A137  A(6,53,73)            126.7718         estimate D2E/DX2                !
 ! A138  A(6,53,78)            121.5515         estimate D2E/DX2                !
 ! A139  A(73,53,78)           111.6764         estimate D2E/DX2                !
 ! A140  A(71,54,73)           124.0633         estimate D2E/DX2                !
 ! A141  A(71,54,79)           123.7563         estimate D2E/DX2                !
 ! A142  A(73,54,79)           112.1756         estimate D2E/DX2                !
 ! A143  A(53,73,54)           110.9998         estimate D2E/DX2                !
 ! A144  A(53,73,55)           124.7325         estimate D2E/DX2                !
 ! A145  A(54,73,55)           124.2487         estimate D2E/DX2                !
 ! A146  A(50,74,51)           111.0513         estimate D2E/DX2                !
 ! A147  A(50,74,52)           124.707          estimate D2E/DX2                !
 ! A148  A(51,74,52)           124.2234         estimate D2E/DX2                !
 ! A149  A(51,75,76)           125.143          estimate D2E/DX2                !
 ! A150  A(51,75,77)           111.0086         estimate D2E/DX2                !
 ! A151  A(76,75,77)           123.8469         estimate D2E/DX2                !
 ! A152  A(50,77,75)            93.2375         estimate D2E/DX2                !
 ! A153  A(53,78,79)            93.244          estimate D2E/DX2                !
 ! A154  A(54,79,78)           111.0263         estimate D2E/DX2                !
 ! A155  A(54,79,80)           125.1511         estimate D2E/DX2                !
 ! A156  A(78,79,80)           123.8216         estimate D2E/DX2                !
 ! A157  A(27,81,82)           109.5            estimate D2E/DX2                !
 ! A158  L(16,49,19,18,-1)     180.1574         estimate D2E/DX2                !
 ! A159  L(17,49,18,19,-1)     179.9998         estimate D2E/DX2                !
 ! A160  L(16,49,19,18,-2)     182.2159         estimate D2E/DX2                !
 ! A161  L(17,49,18,19,-2)     179.9999         estimate D2E/DX2                !
 ! D1    D(24,1,17,10)          -3.0997         estimate D2E/DX2                !
 ! D2    D(24,1,17,49)         175.417          estimate D2E/DX2                !
 ! D3    D(27,1,17,10)        -179.6058         estimate D2E/DX2                !
 ! D4    D(27,1,17,49)          -1.089          estimate D2E/DX2                !
 ! D5    D(17,1,24,11)          -3.1449         estimate D2E/DX2                !
 ! D6    D(17,1,24,50)         178.8123         estimate D2E/DX2                !
 ! D7    D(27,1,24,11)         173.4258         estimate D2E/DX2                !
 ! D8    D(27,1,24,50)          -4.617          estimate D2E/DX2                !
 ! D9    D(17,1,27,7)           31.477          estimate D2E/DX2                !
 ! D10   D(17,1,27,81)        -153.8089         estimate D2E/DX2                !
 ! D11   D(24,1,27,7)         -144.5854         estimate D2E/DX2                !
 ! D12   D(24,1,27,81)          30.1288         estimate D2E/DX2                !
 ! D13   D(20,2,18,4)            2.8054         estimate D2E/DX2                !
 ! D14   D(20,2,18,49)         179.7578         estimate D2E/DX2                !
 ! D15   D(30,2,18,4)         -172.5369         estimate D2E/DX2                !
 ! D16   D(30,2,18,49)           4.4155         estimate D2E/DX2                !
 ! D17   D(18,2,20,3)           -5.4627         estimate D2E/DX2                !
 ! D18   D(18,2,20,21)         176.2995         estimate D2E/DX2                !
 ! D19   D(30,2,20,3)          170.1476         estimate D2E/DX2                !
 ! D20   D(30,2,20,21)          -8.0902         estimate D2E/DX2                !
 ! D21   D(18,2,30,8)           17.7371         estimate D2E/DX2                !
 ! D22   D(18,2,30,37)        -165.1856         estimate D2E/DX2                !
 ! D23   D(20,2,30,8)         -157.083          estimate D2E/DX2                !
 ! D24   D(20,2,30,37)          19.9943         estimate D2E/DX2                !
 ! D25   D(15,3,4,18)          175.8515         estimate D2E/DX2                !
 ! D26   D(15,3,4,29)           -2.7062         estimate D2E/DX2                !
 ! D27   D(20,3,4,18)           -3.8086         estimate D2E/DX2                !
 ! D28   D(20,3,4,29)          177.6337         estimate D2E/DX2                !
 ! D29   D(4,3,20,2)             5.3119         estimate D2E/DX2                !
 ! D30   D(4,3,20,21)         -176.4521         estimate D2E/DX2                !
 ! D31   D(15,3,20,2)         -174.3467         estimate D2E/DX2                !
 ! D32   D(15,3,20,21)           3.8893         estimate D2E/DX2                !
 ! D33   D(3,4,18,2)             0.3802         estimate D2E/DX2                !
 ! D34   D(3,4,18,49)         -176.6077         estimate D2E/DX2                !
 ! D35   D(29,4,18,2)          178.9298         estimate D2E/DX2                !
 ! D36   D(29,4,18,49)           1.9419         estimate D2E/DX2                !
 ! D37   D(3,4,29,5)          -164.8852         estimate D2E/DX2                !
 ! D38   D(3,4,29,31)           13.3613         estimate D2E/DX2                !
 ! D39   D(18,4,29,5)           16.8145         estimate D2E/DX2                !
 ! D40   D(18,4,29,31)        -164.939          estimate D2E/DX2                !
 ! D41   D(22,5,16,7)           -7.6286         estimate D2E/DX2                !
 ! D42   D(22,5,16,49)         170.5718         estimate D2E/DX2                !
 ! D43   D(29,5,16,7)          166.4373         estimate D2E/DX2                !
 ! D44   D(29,5,16,49)         -15.3623         estimate D2E/DX2                !
 ! D45   D(16,5,22,6)            9.8091         estimate D2E/DX2                !
 ! D46   D(16,5,22,23)        -171.1994         estimate D2E/DX2                !
 ! D47   D(29,5,22,6)         -164.4433         estimate D2E/DX2                !
 ! D48   D(29,5,22,23)          14.5482         estimate D2E/DX2                !
 ! D49   D(16,5,29,4)          -10.2325         estimate D2E/DX2                !
 ! D50   D(16,5,29,31)         171.4717         estimate D2E/DX2                !
 ! D51   D(22,5,29,4)          162.9222         estimate D2E/DX2                !
 ! D52   D(22,5,29,31)         -15.3736         estimate D2E/DX2                !
 ! D53   D(22,6,7,16)            3.7399         estimate D2E/DX2                !
 ! D54   D(22,6,7,27)         -174.0408         estimate D2E/DX2                !
 ! D55   D(53,6,7,16)         -178.523          estimate D2E/DX2                !
 ! D56   D(53,6,7,27)            3.6962         estimate D2E/DX2                !
 ! D57   D(7,6,22,5)            -8.4053         estimate D2E/DX2                !
 ! D58   D(7,6,22,23)          172.5926         estimate D2E/DX2                !
 ! D59   D(53,6,22,5)          173.7966         estimate D2E/DX2                !
 ! D60   D(53,6,22,23)          -5.2056         estimate D2E/DX2                !
 ! D61   D(7,6,53,73)           33.4269         estimate D2E/DX2                !
 ! D62   D(7,6,53,78)         -146.8061         estimate D2E/DX2                !
 ! D63   D(22,6,53,73)        -149.1812         estimate D2E/DX2                !
 ! D64   D(22,6,53,78)          30.5858         estimate D2E/DX2                !
 ! D65   D(6,7,16,5)             2.3638         estimate D2E/DX2                !
 ! D66   D(6,7,16,49)         -175.7786         estimate D2E/DX2                !
 ! D67   D(27,7,16,5)         -179.8901         estimate D2E/DX2                !
 ! D68   D(27,7,16,49)           1.9675         estimate D2E/DX2                !
 ! D69   D(6,7,27,1)           145.498          estimate D2E/DX2                !
 ! D70   D(6,7,27,81)          -29.2136         estimate D2E/DX2                !
 ! D71   D(16,7,27,1)          -31.9472         estimate D2E/DX2                !
 ! D72   D(16,7,27,81)         153.3412         estimate D2E/DX2                !
 ! D73   D(19,8,9,14)         -176.6353         estimate D2E/DX2                !
 ! D74   D(19,8,9,25)            3.9199         estimate D2E/DX2                !
 ! D75   D(30,8,9,14)            2.4382         estimate D2E/DX2                !
 ! D76   D(30,8,9,25)         -177.0065         estimate D2E/DX2                !
 ! D77   D(9,8,19,12)           -1.9818         estimate D2E/DX2                !
 ! D78   D(9,8,19,49)          178.7644         estimate D2E/DX2                !
 ! D79   D(30,8,19,12)         178.9516         estimate D2E/DX2                !
 ! D80   D(30,8,19,49)          -0.3023         estimate D2E/DX2                !
 ! D81   D(9,8,30,2)           161.554          estimate D2E/DX2                !
 ! D82   D(9,8,30,37)          -15.5162         estimate D2E/DX2                !
 ! D83   D(19,8,30,2)          -19.5088         estimate D2E/DX2                !
 ! D84   D(19,8,30,37)         163.421          estimate D2E/DX2                !
 ! D85   D(8,9,25,12)           -3.8603         estimate D2E/DX2                !
 ! D86   D(8,9,25,26)          176.0607         estimate D2E/DX2                !
 ! D87   D(14,9,25,12)         176.6975         estimate D2E/DX2                !
 ! D88   D(14,9,25,26)          -3.3816         estimate D2E/DX2                !
 ! D89   D(17,10,11,13)        171.5661         estimate D2E/DX2                !
 ! D90   D(17,10,11,24)        -10.0876         estimate D2E/DX2                !
 ! D91   D(28,10,11,13)        -12.7037         estimate D2E/DX2                !
 ! D92   D(28,10,11,24)        165.6426         estimate D2E/DX2                !
 ! D93   D(11,10,17,1)           8.2187         estimate D2E/DX2                !
 ! D94   D(11,10,17,49)       -170.3312         estimate D2E/DX2                !
 ! D95   D(28,10,17,1)        -167.3796         estimate D2E/DX2                !
 ! D96   D(28,10,17,49)         14.0705         estimate D2E/DX2                !
 ! D97   D(11,10,28,12)       -164.7712         estimate D2E/DX2                !
 ! D98   D(11,10,28,43)         13.013          estimate D2E/DX2                !
 ! D99   D(17,10,28,12)         10.1301         estimate D2E/DX2                !
 ! D100  D(17,10,28,43)       -172.0856         estimate D2E/DX2                !
 ! D101  D(10,11,24,1)           8.2434         estimate D2E/DX2                !
 ! D102  D(10,11,24,50)       -173.6636         estimate D2E/DX2                !
 ! D103  D(13,11,24,1)        -173.3891         estimate D2E/DX2                !
 ! D104  D(13,11,24,50)          4.7039         estimate D2E/DX2                !
 ! D105  D(25,12,19,8)          -0.3307         estimate D2E/DX2                !
 ! D106  D(25,12,19,49)        178.93           estimate D2E/DX2                !
 ! D107  D(28,12,19,8)        -179.4484         estimate D2E/DX2                !
 ! D108  D(28,12,19,49)         -0.1877         estimate D2E/DX2                !
 ! D109  D(19,12,25,9)           2.7968         estimate D2E/DX2                !
 ! D110  D(19,12,25,26)       -177.1244         estimate D2E/DX2                !
 ! D111  D(28,12,25,9)        -178.0849         estimate D2E/DX2                !
 ! D112  D(28,12,25,26)          1.9939         estimate D2E/DX2                !
 ! D113  D(19,12,28,10)        -16.8096         estimate D2E/DX2                !
 ! D114  D(19,12,28,43)        165.4593         estimate D2E/DX2                !
 ! D115  D(25,12,28,10)        164.2239         estimate D2E/DX2                !
 ! D116  D(25,12,28,43)        -13.5072         estimate D2E/DX2                !
 ! D117  D(5,16,49,17)        -154.8724         estimate D2E/DX2                !
 ! D118  D(5,16,49,18)          25.1276         estimate D2E/DX2                !
 ! D119  D(7,16,49,17)          22.9214         estimate D2E/DX2                !
 ! D120  D(7,16,49,18)        -157.0786         estimate D2E/DX2                !
 ! D121  D(1,17,49,16)         -23.258          estimate D2E/DX2                !
 ! D122  D(1,17,49,19)         158.9579         estimate D2E/DX2                !
 ! D123  D(10,17,49,16)        154.9682         estimate D2E/DX2                !
 ! D124  D(10,17,49,19)        -22.8159         estimate D2E/DX2                !
 ! D125  D(2,18,49,16)         164.3895         estimate D2E/DX2                !
 ! D126  D(2,18,49,19)         -17.8264         estimate D2E/DX2                !
 ! D127  D(4,18,49,16)         -19.2239         estimate D2E/DX2                !
 ! D128  D(4,18,49,19)         158.5603         estimate D2E/DX2                !
 ! D129  D(8,19,49,17)        -164.1022         estimate D2E/DX2                !
 ! D130  D(8,19,49,18)          15.8978         estimate D2E/DX2                !
 ! D131  D(12,19,49,17)         16.7894         estimate D2E/DX2                !
 ! D132  D(12,19,49,18)       -163.2105         estimate D2E/DX2                !
 ! D133  D(1,24,50,74)         -32.7585         estimate D2E/DX2                !
 ! D134  D(1,24,50,77)         147.0945         estimate D2E/DX2                !
 ! D135  D(11,24,50,74)        149.5034         estimate D2E/DX2                !
 ! D136  D(11,24,50,77)        -30.6436         estimate D2E/DX2                !
 ! D137  D(1,27,81,82)          92.6205         estimate D2E/DX2                !
 ! D138  D(7,27,81,82)         -93.4647         estimate D2E/DX2                !
 ! D139  D(10,28,43,44)       -100.3567         estimate D2E/DX2                !
 ! D140  D(10,28,43,45)         79.1971         estimate D2E/DX2                !
 ! D141  D(12,28,43,44)         77.3527         estimate D2E/DX2                !
 ! D142  D(12,28,43,45)       -103.0936         estimate D2E/DX2                !
 ! D143  D(4,29,31,32)         -76.1283         estimate D2E/DX2                !
 ! D144  D(4,29,31,33)         104.4119         estimate D2E/DX2                !
 ! D145  D(5,29,31,32)         102.0932         estimate D2E/DX2                !
 ! D146  D(5,29,31,33)         -77.3666         estimate D2E/DX2                !
 ! D147  D(2,30,37,38)          77.5606         estimate D2E/DX2                !
 ! D148  D(2,30,37,39)        -102.443          estimate D2E/DX2                !
 ! D149  D(8,30,37,38)        -105.4607         estimate D2E/DX2                !
 ! D150  D(8,30,37,39)          74.5356         estimate D2E/DX2                !
 ! D151  D(29,31,32,34)       -176.3988         estimate D2E/DX2                !
 ! D152  D(29,31,32,60)          1.0832         estimate D2E/DX2                !
 ! D153  D(33,31,32,34)          3.0661         estimate D2E/DX2                !
 ! D154  D(33,31,32,60)       -179.452          estimate D2E/DX2                !
 ! D155  D(29,31,33,35)       -179.018          estimate D2E/DX2                !
 ! D156  D(29,31,33,56)         -1.2303         estimate D2E/DX2                !
 ! D157  D(32,31,33,35)          1.5368         estimate D2E/DX2                !
 ! D158  D(32,31,33,56)        179.3245         estimate D2E/DX2                !
 ! D159  D(31,32,34,36)         -4.8613         estimate D2E/DX2                !
 ! D160  D(31,32,34,59)        174.591          estimate D2E/DX2                !
 ! D161  D(60,32,34,36)        177.6809         estimate D2E/DX2                !
 ! D162  D(60,32,34,59)         -2.8668         estimate D2E/DX2                !
 ! D163  D(31,33,35,36)         -4.3217         estimate D2E/DX2                !
 ! D164  D(31,33,35,57)        175.2341         estimate D2E/DX2                !
 ! D165  D(56,33,35,36)        177.8805         estimate D2E/DX2                !
 ! D166  D(56,33,35,57)         -2.5637         estimate D2E/DX2                !
 ! D167  D(32,34,36,35)          2.0618         estimate D2E/DX2                !
 ! D168  D(32,34,36,58)       -177.9443         estimate D2E/DX2                !
 ! D169  D(59,34,36,35)       -177.3874         estimate D2E/DX2                !
 ! D170  D(59,34,36,58)          2.6065         estimate D2E/DX2                !
 ! D171  D(33,35,36,34)          2.5426         estimate D2E/DX2                !
 ! D172  D(33,35,36,58)       -177.4513         estimate D2E/DX2                !
 ! D173  D(57,35,36,34)       -177.0138         estimate D2E/DX2                !
 ! D174  D(57,35,36,58)          2.9923         estimate D2E/DX2                !
 ! D175  D(30,37,38,40)        177.9227         estimate D2E/DX2                !
 ! D176  D(30,37,38,61)          0.2666         estimate D2E/DX2                !
 ! D177  D(39,37,38,40)         -2.0736         estimate D2E/DX2                !
 ! D178  D(39,37,38,61)       -179.7297         estimate D2E/DX2                !
 ! D179  D(30,37,39,41)        177.6285         estimate D2E/DX2                !
 ! D180  D(30,37,39,65)         -0.0411         estimate D2E/DX2                !
 ! D181  D(38,37,39,41)         -2.3751         estimate D2E/DX2                !
 ! D182  D(38,37,39,65)        179.9553         estimate D2E/DX2                !
 ! D183  D(37,38,40,42)          4.3869         estimate D2E/DX2                !
 ! D184  D(37,38,40,62)       -175.1401         estimate D2E/DX2                !
 ! D185  D(61,38,40,42)       -177.941          estimate D2E/DX2                !
 ! D186  D(61,38,40,62)          2.532          estimate D2E/DX2                !
 ! D187  D(37,39,41,42)          4.5283         estimate D2E/DX2                !
 ! D188  D(37,39,41,64)       -174.9638         estimate D2E/DX2                !
 ! D189  D(65,39,41,42)       -177.8135         estimate D2E/DX2                !
 ! D190  D(65,39,41,64)          2.6943         estimate D2E/DX2                !
 ! D191  D(38,40,42,41)         -2.2586         estimate D2E/DX2                !
 ! D192  D(38,40,42,63)        177.734          estimate D2E/DX2                !
 ! D193  D(62,40,42,41)        177.2703         estimate D2E/DX2                !
 ! D194  D(62,40,42,63)         -2.7371         estimate D2E/DX2                !
 ! D195  D(39,41,42,40)         -2.1988         estimate D2E/DX2                !
 ! D196  D(39,41,42,63)        177.8086         estimate D2E/DX2                !
 ! D197  D(64,41,42,40)        177.2928         estimate D2E/DX2                !
 ! D198  D(64,41,42,63)         -2.6998         estimate D2E/DX2                !
 ! D199  D(28,43,44,46)        176.7465         estimate D2E/DX2                !
 ! D200  D(28,43,44,66)         -0.7187         estimate D2E/DX2                !
 ! D201  D(45,43,44,46)         -2.8076         estimate D2E/DX2                !
 ! D202  D(45,43,44,66)        179.7272         estimate D2E/DX2                !
 ! D203  D(28,43,45,47)        178.6072         estimate D2E/DX2                !
 ! D204  D(28,43,45,70)          0.872          estimate D2E/DX2                !
 ! D205  D(44,43,45,47)         -1.8502         estimate D2E/DX2                !
 ! D206  D(44,43,45,70)       -179.5854         estimate D2E/DX2                !
 ! D207  D(43,44,46,48)          4.8014         estimate D2E/DX2                !
 ! D208  D(43,44,46,67)       -174.6608         estimate D2E/DX2                !
 ! D209  D(66,44,46,48)       -177.7539         estimate D2E/DX2                !
 ! D210  D(66,44,46,67)          2.7839         estimate D2E/DX2                !
 ! D211  D(43,45,47,48)          4.4845         estimate D2E/DX2                !
 ! D212  D(43,45,47,69)       -175.041          estimate D2E/DX2                !
 ! D213  D(70,45,47,48)       -177.774          estimate D2E/DX2                !
 ! D214  D(70,45,47,69)          2.7004         estimate D2E/DX2                !
 ! D215  D(44,46,48,47)         -2.157          estimate D2E/DX2                !
 ! D216  D(44,46,48,68)        177.8312         estimate D2E/DX2                !
 ! D217  D(67,46,48,47)        177.3024         estimate D2E/DX2                !
 ! D218  D(67,46,48,68)         -2.7094         estimate D2E/DX2                !
 ! D219  D(45,47,48,46)         -2.5052         estimate D2E/DX2                !
 ! D220  D(45,47,48,68)        177.5066         estimate D2E/DX2                !
 ! D221  D(69,47,48,46)        177.0205         estimate D2E/DX2                !
 ! D222  D(69,47,48,68)         -2.9678         estimate D2E/DX2                !
 ! D223  D(24,50,74,51)       -173.8659         estimate D2E/DX2                !
 ! D224  D(24,50,74,52)          4.6274         estimate D2E/DX2                !
 ! D225  D(77,50,74,51)          6.2691         estimate D2E/DX2                !
 ! D226  D(77,50,74,52)       -175.2377         estimate D2E/DX2                !
 ! D227  D(24,50,77,75)        171.4646         estimate D2E/DX2                !
 ! D228  D(74,50,77,75)         -8.6618         estimate D2E/DX2                !
 ! D229  D(72,51,74,50)        179.3614         estimate D2E/DX2                !
 ! D230  D(72,51,74,52)          0.8595         estimate D2E/DX2                !
 ! D231  D(75,51,74,50)          0.1811         estimate D2E/DX2                !
 ! D232  D(75,51,74,52)       -178.3208         estimate D2E/DX2                !
 ! D233  D(72,51,75,76)         -6.1335         estimate D2E/DX2                !
 ! D234  D(72,51,75,77)        174.2855         estimate D2E/DX2                !
 ! D235  D(74,51,75,76)        173.0499         estimate D2E/DX2                !
 ! D236  D(74,51,75,77)         -6.5311         estimate D2E/DX2                !
 ! D237  D(6,53,73,54)         173.674          estimate D2E/DX2                !
 ! D238  D(6,53,73,55)          -4.7972         estimate D2E/DX2                !
 ! D239  D(78,53,73,54)         -6.1123         estimate D2E/DX2                !
 ! D240  D(78,53,73,55)        175.4164         estimate D2E/DX2                !
 ! D241  D(6,53,78,79)        -171.2904         estimate D2E/DX2                !
 ! D242  D(73,53,78,79)          8.5088         estimate D2E/DX2                !
 ! D243  D(71,54,73,53)       -179.4919         estimate D2E/DX2                !
 ! D244  D(71,54,73,55)         -1.0118         estimate D2E/DX2                !
 ! D245  D(79,54,73,53)         -0.2669         estimate D2E/DX2                !
 ! D246  D(79,54,73,55)        178.2131         estimate D2E/DX2                !
 ! D247  D(71,54,79,78)       -174.2744         estimate D2E/DX2                !
 ! D248  D(71,54,79,80)          6.0814         estimate D2E/DX2                !
 ! D249  D(73,54,79,78)          6.4978         estimate D2E/DX2                !
 ! D250  D(73,54,79,80)       -173.1464         estimate D2E/DX2                !
 ! D251  D(51,75,77,50)          8.6917         estimate D2E/DX2                !
 ! D252  D(76,75,77,50)       -170.8958         estimate D2E/DX2                !
 ! D253  D(53,78,79,54)         -8.5895         estimate D2E/DX2                !
 ! D254  D(53,78,79,80)        171.0603         estimate D2E/DX2                !
 --------------------------------------------------------------------------------
 Trust Radius=3.00D-01 FncErr=1.00D-07 GrdErr=1.00D-06 EigMax=2.50D+02 EigMin=1.00D-04
 Number of steps in this run=    492 maximum allowed number of steps=    492.
 GradGradGradGradGradGradGradGradGradGradGradGradGradGradGradGradGradGrad

 Stoichiometry    C46H13F15N4NiOS2
 Framework group  C1[X(C46H13F15N4NiOS2)]
 Deg. of freedom   240
 Full point group                 C1      NOp   1
 Largest Abelian subgroup         C1      NOp   1
 Largest concise Abelian subgroup C1      NOp   1
                         Standard orientation:                         
 ---------------------------------------------------------------------
 Center     Atomic      Atomic             Coordinates (Angstroms)
 Number     Number       Type             X           Y           Z
 ---------------------------------------------------------------------
      1          6           0       -1.215483   -2.380397   -0.997262
      2          6           0        1.174372    2.766525   -0.258624
      3          6           0        3.429576    2.570198    0.342480
      4          6           0        2.741296    1.219015    0.257252
      5          6           0        2.663692   -1.085397    0.093974
      6          6           0        2.399324   -3.093545   -0.794572
      7          6           0        1.222004   -2.386054   -0.975115
      8          6           0       -1.185086    2.803020   -0.171848
      9          6           0       -2.535246    3.508039    0.052268
     10          6           0       -2.672085   -1.080776    0.059644
     11          6           0       -3.255374   -2.334204   -0.068028
     12          6           0       -2.750221    1.224855    0.281594
     13          1           0       -4.201031   -2.649259    0.316434
     14          1           0       -2.710888    4.558484   -0.028001
     15          1           0        4.436446    2.754409    0.652806
     16          7           0        1.319998   -1.174067   -0.423842
     17          7           0       -1.316974   -1.167172   -0.438573
     18          7           0        1.327445    1.447993   -0.121268
     19          7           0       -1.332415    1.458145   -0.062187
     20          6           0        2.523309    3.484299   -0.040612
     21          1           0        2.697484    4.531872   -0.146466
     22          6           0        3.255627   -2.330984   -0.025377
     23          1           0        4.194342   -2.642591    0.378296
     24          6           0       -2.387958   -3.095382   -0.827491
     25          6           0       -3.447021    2.576315    0.377053
     26          1           0       -4.464866    2.747981    0.651152
     27          6           0        0.010695   -2.934952   -1.644338
     28          6           0       -3.319206    0.035513    0.491612
     29          6           0        3.308266    0.036991    0.511081
     30          6           0       -0.001366    3.452242   -0.463065
     31          6           0        4.659651   -0.086190    1.211263
     32          6           0        5.802208    0.191934    0.471997
     33          6           0        4.756011   -0.478490    2.555821
     34          6           0        7.061080    0.019878    1.048045
     35          6           0        6.016601   -0.557835    3.162650
     36          6           0        7.170812   -0.334109    2.399556
     37          6           0        0.008660    4.918871   -0.935737
     38          6           0        0.258799    5.237586   -2.286583
     39          6           0       -0.232640    5.936988   -0.014617
     40          6           0        0.220195    6.578024   -2.705379
     41          6           0       -0.177964    7.276739   -0.417912
     42          6           0        0.025257    7.597856   -1.765623
     43          6           0       -4.685265   -0.096092    1.150731
     44          6           0       -5.813904    0.174239    0.387465
     45          6           0       -4.802397   -0.489038    2.490370
     46          6           0       -7.082153   -0.002580    0.940762
     47          6           0       -6.071608   -0.572003    3.074628
     48          6           0       -7.213494   -0.353939    2.291152
     49         28           0        0.004362    0.139542   -0.280027
     50          6           0       -2.682455   -4.498344   -1.336043
     51          6           0       -2.868305   -6.458757   -2.718499
     52          1           0       -1.508832   -4.612220   -3.147114
     53          6           0        2.705778   -4.493702   -1.296999
     54          6           0        2.920480   -6.448190   -2.683087
     55          1           0        1.560737   -4.605606   -3.127743
     56          9           0        3.640909   -0.735389    3.276669
     57          9           0        6.120215   -0.839913    4.479937
     58          9           0        8.388981   -0.459232    2.964588
     59          9           0        8.168222    0.184743    0.296496
     60          9           0        5.684804    0.577841   -0.815010
     61          9           0        0.488674    4.258882   -3.189809
     62          9           0        0.360979    6.886740   -4.013474
     63          9           0        0.033207    8.889973   -2.157578
     64          9           0       -0.311318    8.259663    0.496731
     65          9           0       -0.472245    5.626902    1.276024
     66          9           0       -5.675194    0.556468   -0.899247
     67          9           0       -8.177088    0.155095    0.169488
     68          9           0       -8.440025   -0.481773    2.836034
     69          9           0       -6.195539   -0.851580    4.390197
     70          9           0       -3.697868   -0.742059    3.228144
     71          1           0        2.725128   -7.071114   -3.528957
     72          1           0       -2.658443   -7.082790   -3.560558
     73          6           0        2.258068   -5.062227   -2.451653
     74          6           0       -2.215136   -5.069096   -2.480752
     75          6           0       -3.755663   -6.784857   -1.737067
     76          1           0       -4.395438   -7.636619   -1.747086
     77         16           0       -3.721572   -5.601509   -0.438266
     78         16           0        3.737726   -5.592586   -0.388932
     79          6           0        3.794916   -6.772764   -1.689402
     80          1           0        4.437352   -7.622262   -1.691203
     81          8           0        0.018697   -3.933633   -2.667798
     82          1           0        0.021153   -3.509751   -3.529145
 ---------------------------------------------------------------------
 Rotational constants (GHZ):           0.0271971           0.0243807           0.0157571
 General basis read from cards:  (5D, 7F)
 ======================================================================================================
                                       Pseudopotential Parameters
 ======================================================================================================
  Center     Atomic      Valence      Angular      Power
  Number     Number     Electrons     Momentum     of R      Exponent        Coefficient   SO-Coeffient
 ======================================================================================================
    1          6
                                   No pseudopotential on this center.
    2          6
                                   No pseudopotential on this center.
    3          6
                                   No pseudopotential on this center.
    4          6
                                   No pseudopotential on this center.
    5          6
                                   No pseudopotential on this center.
    6          6
                                   No pseudopotential on this center.
    7          6
                                   No pseudopotential on this center.
    8          6
                                   No pseudopotential on this center.
    9          6
                                   No pseudopotential on this center.
   10          6
                                   No pseudopotential on this center.
   11          6
                                   No pseudopotential on this center.
   12          6
                                   No pseudopotential on this center.
   13          1
                                   No pseudopotential on this center.
   14          1
                                   No pseudopotential on this center.
   15          1
                                   No pseudopotential on this center.
   16          7
                                   No pseudopotential on this center.
   17          7
                                   No pseudopotential on this center.
   18          7
                                   No pseudopotential on this center.
   19          7
                                   No pseudopotential on this center.
   20          6
                                   No pseudopotential on this center.
   21          1
                                   No pseudopotential on this center.
   22          6
                                   No pseudopotential on this center.
   23          1
                                   No pseudopotential on this center.
   24          6
                                   No pseudopotential on this center.
   25          6
                                   No pseudopotential on this center.
   26          1
                                   No pseudopotential on this center.
   27          6
                                   No pseudopotential on this center.
   28          6
                                   No pseudopotential on this center.
   29          6
                                   No pseudopotential on this center.
   30          6
                                   No pseudopotential on this center.
   31          6
                                   No pseudopotential on this center.
   32          6
                                   No pseudopotential on this center.
   33          6
                                   No pseudopotential on this center.
   34          6
                                   No pseudopotential on this center.
   35          6
                                   No pseudopotential on this center.
   36          6
                                   No pseudopotential on this center.
   37          6
                                   No pseudopotential on this center.
   38          6
                                   No pseudopotential on this center.
   39          6
                                   No pseudopotential on this center.
   40          6
                                   No pseudopotential on this center.
   41          6
                                   No pseudopotential on this center.
   42          6
                                   No pseudopotential on this center.
   43          6
                                   No pseudopotential on this center.
   44          6
                                   No pseudopotential on this center.
   45          6
                                   No pseudopotential on this center.
   46          6
                                   No pseudopotential on this center.
   47          6
                                   No pseudopotential on this center.
   48          6
                                   No pseudopotential on this center.
   49         28           18
                                      D and up 
                                                     1      469.9324331      -10.00000000    0.00000000
                                                     2       85.4236411      -69.40848050    0.00000000
                                                     2       21.2674984      -12.09510200    0.00000000
                                      S - D
                                                     0      162.1686097        3.00000000    0.00000000
                                                     1      176.5333232       22.02536180    0.00000000
                                                     2       68.9562010      443.01810880    0.00000000
                                                     2       13.5792838      145.56964110    0.00000000
                                      P - D
                                                     0       69.0181506        5.00000000    0.00000000
                                                     1      275.5955596        4.98828240    0.00000000
                                                     2       47.1315453      256.69458530    0.00000000
                                                     2       12.9874075       78.47544500    0.00000000
   50          6
                                   No pseudopotential on this center.
   51          6
                                   No pseudopotential on this center.
   52          1
                                   No pseudopotential on this center.
   53          6
                                   No pseudopotential on this center.
   54          6
                                   No pseudopotential on this center.
   55          1
                                   No pseudopotential on this center.
   56          9
                                   No pseudopotential on this center.
   57          9
                                   No pseudopotential on this center.
   58          9
                                   No pseudopotential on this center.
   59          9
                                   No pseudopotential on this center.
   60          9
                                   No pseudopotential on this center.
   61          9
                                   No pseudopotential on this center.
   62          9
                                   No pseudopotential on this center.
   63          9
                                   No pseudopotential on this center.
   64          9
                                   No pseudopotential on this center.
   65          9
                                   No pseudopotential on this center.
   66          9
                                   No pseudopotential on this center.
   67          9
                                   No pseudopotential on this center.
   68          9
                                   No pseudopotential on this center.
   69          9
                                   No pseudopotential on this center.
   70          9
                                   No pseudopotential on this center.
   71          1
                                   No pseudopotential on this center.
   72          1
                                   No pseudopotential on this center.
   73          6
                                   No pseudopotential on this center.
   74          6
                                   No pseudopotential on this center.
   75          6
                                   No pseudopotential on this center.
   76          1
                                   No pseudopotential on this center.
   77         16
                                   No pseudopotential on this center.
   78         16
                                   No pseudopotential on this center.
   79          6
                                   No pseudopotential on this center.
   80          1
                                   No pseudopotential on this center.
   81          8
                                   No pseudopotential on this center.
   82          1
                                   No pseudopotential on this center.
 ======================================================================================================
 There are  1117 symmetry adapted cartesian basis functions of A   symmetry.
 There are  1047 symmetry adapted basis functions of A   symmetry.
  1047 basis functions,  2095 primitive gaussians,  1117 cartesian basis functions
   255 alpha electrons      255 beta electrons
       nuclear repulsion energy     11743.2229055346 Hartrees.
 NAtoms=   82 NActive=   82 NUniq=   82 SFac= 1.00D+00 NAtFMM=   60 NAOKFM=T Big=T
 Integral buffers will be    131072 words long.
 Raffenetti 2 integral format.
 Two-electron integral symmetry is turned on.
 One-electron integrals computed using PRISM.
   1 Symmetry operations used in ECPInt.
 ECPInt:  NShTT=   51681 NPrTT=  356211 LenC2=   28354 LenP2D=   90684.
 LDataN:  DoStor=T MaxTD1= 4 Len=   56
 NBasis=  1047 RedAO= T EigKep=  3.41D-04  NBF=  1047
 NBsUse=  1047 1.00D-06 EigRej= -1.00D+00 NBFU=  1047
 ExpMin= 2.40D-02 ExpMax= 2.19D+04 ExpMxC= 3.30D+03 IAcc=3 IRadAn=         5 AccDes= 0.00D+00
 Harris functional with IExCor=  402 and IRadAn=       5 diagonalized for initial guess.
 HarFok:  IExCor=  402 AccDes= 0.00D+00 IRadAn=         5 IDoV= 1 UseB2=F ITyADJ=14
 ICtDFT=  3500011 ScaDFX=  1.000000  1.000000  1.000000  1.000000
 FoFCou: FMM=F IPFlag=           0 FMFlag=      100000 FMFlg1=        2001
         NFxFlg=           0 DoJE=T BraDBF=F KetDBF=T FulRan=T
         wScrn=  0.000000 ICntrl=       500 IOpCl=  0 I1Cent=   200000004 NGrid=           0
         NMat0=    1 NMatS0=      1 NMatT0=    0 NMatD0=    1 NMtDS0=    0 NMtDT0=    0
 Petite list used in FoFCou.
 Requested convergence on RMS density matrix=1.00D-08 within1000 cycles.
 Requested convergence on MAX density matrix=1.00D-06.
 Requested convergence on             energy=1.00D-06.
 No special actions if energy rises.
 EnCoef did     3 forward-backward iterations
 EnCoef did   100 forward-backward iterations
 EnCoef did   100 forward-backward iterations
 EnCoef did     2 forward-backward iterations
 Restarting incremental Fock formation.
 SCF Done:  E(RB3LYP) =  -4517.92036546     A.U. after   23 cycles
            NFock= 23  Conv=0.17D-08     -V/T= 2.0197

 **********************************************************************

            Population analysis using the SCF Density.

 **********************************************************************

 Orbital symmetries:
       Occupied  (A) (A) (A) (A) (A) (A) (A) (A) (A) (A) (A) (A)
                 (A) (A) (A) (A) (A) (A) (A) (A) (A) (A) (A) (A)
                 (A) (A) (A) (A) (A) (A) (A) (A) (A) (A) (A) (A)
                 (A) (A) (A) (A) (A) (A) (A) (A) (A) (A) (A) (A)
                 (A) (A) (A) (A) (A) (A) (A) (A) (A) (A) (A) (A)
                 (A) (A) (A) (A) (A) (A) (A) (A) (A) (A) (A) (A)
                 (A) (A) (A) (A) (A) (A) (A) (A) (A) (A) (A) (A)
                 (A) (A) (A) (A) (A) (A) (A) (A) (A) (A) (A) (A)
                 (A) (A) (A) (A) (A) (A) (A) (A) (A) (A) (A) (A)
                 (A) (A) (A) (A) (A) (A) (A) (A) (A) (A) (A) (A)
                 (A) (A) (A) (A) (A) (A) (A) (A) (A) (A) (A) (A)
                 (A) (A) (A) (A) (A) (A) (A) (A) (A) (A) (A) (A)
                 (A) (A) (A) (A) (A) (A) (A) (A) (A) (A) (A) (A)
                 (A) (A) (A) (A) (A) (A) (A) (A) (A) (A) (A) (A)
                 (A) (A) (A) (A) (A) (A) (A) (A) (A) (A) (A) (A)
                 (A) (A) (A) (A) (A) (A) (A) (A) (A) (A) (A) (A)
                 (A) (A) (A) (A) (A) (A) (A) (A) (A) (A) (A) (A)
                 (A) (A) (A) (A) (A) (A) (A) (A) (A) (A) (A) (A)
                 (A) (A) (A) (A) (A) (A) (A) (A) (A) (A) (A) (A)
                 (A) (A) (A) (A) (A) (A) (A) (A) (A) (A) (A) (A)
                 (A) (A) (A) (A) (A) (A) (A) (A) (A) (A) (A) (A)
                 (A) (A) (A)
       Virtual   (A) (A) (A) (A) (A) (A) (A) (A) (A) (A) (A) (A)
                 (A) (A) (A) (A) (A) (A) (A) (A) (A) (A) (A) (A)
                 (A) (A) (A) (A) (A) (A) (A) (A) (A) (A) (A) (A)
                 (A) (A) (A) (A) (A) (A) (A) (A) (A) (A) (A) (A)
                 (A) (A) (A) (A) (A) (A) (A) (A) (A) (A) (A) (A)
                 (A) (A) (A) (A) (A) (A) (A) (A) (A) (A) (A) (A)
                 (A) (A) (A) (A) (A) (A) (A) (A) (A) (A) (A) (A)
                 (A) (A) (A) (A) (A) (A) (A) (A) (A) (A) (A) (A)
                 (A) (A) (A) (A) (A) (A) (A) (A) (A) (A) (A) (A)
                 (A) (A) (A) (A) (A) (A) (A) (A) (A) (A) (A) (A)
                 (A) (A) (A) (A) (A) (A) (A) (A) (A) (A) (A) (A)
                 (A) (A) (A) (A) (A) (A) (A) (A) (A) (A) (A) (A)
                 (A) (A) (A) (A) (A) (A) (A) (A) (A) (A) (A) (A)
                 (A) (A) (A) (A) (A) (A) (A) (A) (A) (A) (A) (A)
                 (A) (A) (A) (A) (A) (A) (A) (A) (A) (A) (A) (A)
                 (A) (A) (A) (A) (A) (A) (A) (A) (A) (A) (A) (A)
                 (A) (A) (A) (A) (A) (A) (A) (A) (A) (A) (A) (A)
                 (A) (A) (A) (A) (A) (A) (A) (A) (A) (A) (A) (A)
                 (A) (A) (A) (A) (A) (A) (A) (A) (A) (A) (A) (A)
                 (A) (A) (A) (A) (A) (A) (A) (A) (A) (A) (A) (A)
                 (A) (A) (A) (A) (A) (A) (A) (A) (A) (A) (A) (A)
                 (A) (A) (A) (A) (A) (A) (A) (A) (A) (A) (A) (A)
                 (A) (A) (A) (A) (A) (A) (A) (A) (A) (A) (A) (A)
                 (A) (A) (A) (A) (A) (A) (A) (A) (A) (A) (A) (A)
                 (A) (A) (A) (A) (A) (A) (A) (A) (A) (A) (A) (A)
                 (A) (A) (A) (A) (A) (A) (A) (A) (A) (A) (A) (A)
                 (A) (A) (A) (A) (A) (A) (A) (A) (A) (A) (A) (A)
                 (A) (A) (A) (A) (A) (A) (A) (A) (A) (A) (A) (A)
                 (A) (A) (A) (A) (A) (A) (A) (A) (A) (A) (A) (A)
                 (A) (A) (A) (A) (A) (A) (A) (A) (A) (A) (A) (A)
                 (A) (A) (A) (A) (A) (A) (A) (A) (A) (A) (A) (A)
                 (A) (A) (A) (A) (A) (A) (A) (A) (A) (A) (A) (A)
                 (A) (A) (A) (A) (A) (A) (A) (A) (A) (A) (A) (A)
                 (A) (A) (A) (A) (A) (A) (A) (A) (A) (A) (A) (A)
                 (A) (A) (A) (A) (A) (A) (A) (A) (A) (A) (A) (A)
                 (A) (A) (A) (A) (A) (A) (A) (A) (A) (A) (A) (A)
                 (A) (A) (A) (A) (A) (A) (A) (A) (A) (A) (A) (A)
                 (A) (A) (A) (A) (A) (A) (A) (A) (A) (A) (A) (A)
                 (A) (A) (A) (A) (A) (A) (A) (A) (A) (A) (A) (A)
                 (A) (A) (A) (A) (A) (A) (A) (A) (A) (A) (A) (A)
                 (A) (A) (A) (A) (A) (A) (A) (A) (A) (A) (A) (A)
                 (A) (A) (A) (A) (A) (A) (A) (A) (A) (A) (A) (A)
                 (A) (A) (A) (A) (A) (A) (A) (A) (A) (A) (A) (A)
                 (A) (A) (A) (A) (A) (A) (A) (A) (A) (A) (A) (A)
                 (A) (A) (A) (A) (A) (A) (A) (A) (A) (A) (A) (A)
                 (A) (A) (A) (A) (A) (A) (A) (A) (A) (A) (A) (A)
                 (A) (A) (A) (A) (A) (A) (A) (A) (A) (A) (A) (A)
                 (A) (A) (A) (A) (A) (A) (A) (A) (A) (A) (A) (A)
                 (A) (A) (A) (A) (A) (A) (A) (A) (A) (A) (A) (A)
                 (A) (A) (A) (A) (A) (A) (A) (A) (A) (A) (A) (A)
                 (A) (A) (A) (A) (A) (A) (A) (A) (A) (A) (A) (A)
                 (A) (A) (A) (A) (A) (A) (A) (A) (A) (A) (A) (A)
                 (A) (A) (A) (A) (A) (A) (A) (A) (A) (A) (A) (A)
                 (A) (A) (A) (A) (A) (A) (A) (A) (A) (A) (A) (A)
                 (A) (A) (A) (A) (A) (A) (A) (A) (A) (A) (A) (A)
                 (A) (A) (A) (A) (A) (A) (A) (A) (A) (A) (A) (A)
                 (A) (A) (A) (A) (A) (A) (A) (A) (A) (A) (A) (A)
                 (A) (A) (A) (A) (A) (A) (A) (A) (A) (A) (A) (A)
                 (A) (A) (A) (A) (A) (A) (A) (A) (A) (A) (A) (A)
                 (A) (A) (A) (A) (A) (A) (A) (A) (A) (A) (A) (A)
                 (A) (A) (A) (A) (A) (A) (A) (A) (A) (A) (A) (A)
                 (A) (A) (A) (A) (A) (A) (A) (A) (A) (A) (A) (A)
                 (A) (A) (A) (A) (A) (A) (A) (A) (A) (A) (A) (A)
                 (A) (A) (A) (A) (A) (A) (A) (A) (A) (A) (A) (A)
                 (A) (A) (A) (A) (A) (A) (A) (A) (A) (A) (A) (A)
                 (A) (A) (A) (A) (A) (A) (A) (A) (A) (A) (A) (A)
 The electronic state is 1-A.
 Alpha  occ. eigenvalues --  -88.88442 -88.88424 -24.74065 -24.74021 -24.74016
 Alpha  occ. eigenvalues --  -24.73943 -24.73883 -24.73834 -24.73693 -24.73642
 Alpha  occ. eigenvalues --  -24.73641 -24.73634 -24.73602 -24.73591 -24.73585
 Alpha  occ. eigenvalues --  -24.73556 -24.73551 -19.21170 -14.36957 -14.36890
 Alpha  occ. eigenvalues --  -14.36073 -14.36047 -10.31906 -10.31849 -10.31806
 Alpha  occ. eigenvalues --  -10.31650 -10.31558 -10.31527 -10.31405 -10.31347
 Alpha  occ. eigenvalues --  -10.31328 -10.31325 -10.31296 -10.31296 -10.31296
 Alpha  occ. eigenvalues --  -10.31249 -10.31246 -10.29871 -10.24926 -10.24800
 Alpha  occ. eigenvalues --  -10.24766 -10.24747 -10.24746 -10.24684 -10.24621
 Alpha  occ. eigenvalues --  -10.24252 -10.24240 -10.23341 -10.23309 -10.22514
 Alpha  occ. eigenvalues --  -10.22410 -10.22192 -10.22107 -10.22080 -10.20976
 Alpha  occ. eigenvalues --  -10.20934 -10.20931 -10.20930 -10.20803 -10.20792
 Alpha  occ. eigenvalues --  -10.20777 -10.20726 -10.19311 -10.19308 -10.18927
 Alpha  occ. eigenvalues --  -10.18916 -10.18555 -10.18543  -7.95961  -7.95942
 Alpha  occ. eigenvalues --   -5.92332  -5.92312  -5.91943  -5.91923  -5.91538
 Alpha  occ. eigenvalues --   -5.91517  -4.04582  -2.66364  -2.66295  -2.60689
 Alpha  occ. eigenvalues --   -1.26264  -1.26220  -1.26177  -1.25672  -1.25613
 Alpha  occ. eigenvalues --   -1.25589  -1.25180  -1.25136  -1.25109  -1.24418
 Alpha  occ. eigenvalues --   -1.24363  -1.24349  -1.24011  -1.23974  -1.23947
 Alpha  occ. eigenvalues --   -1.08683  -0.98633  -0.97450  -0.96689  -0.94816
 Alpha  occ. eigenvalues --   -0.91584  -0.91496  -0.91099  -0.86566  -0.86531
 Alpha  occ. eigenvalues --   -0.86014  -0.84764  -0.82678  -0.79891  -0.79587
 Alpha  occ. eigenvalues --   -0.79260  -0.79227  -0.79132  -0.79105  -0.78877
 Alpha  occ. eigenvalues --   -0.78403  -0.78119  -0.77296  -0.75297  -0.74385
 Alpha  occ. eigenvalues --   -0.72600  -0.71601  -0.71493  -0.71039  -0.68648
 Alpha  occ. eigenvalues --   -0.68409  -0.67728  -0.67033  -0.66996  -0.66915
 Alpha  occ. eigenvalues --   -0.66466  -0.65705  -0.61552  -0.61121  -0.60682
 Alpha  occ. eigenvalues --   -0.60233  -0.60029  -0.59817  -0.59545  -0.59510
 Alpha  occ. eigenvalues --   -0.59331  -0.59141  -0.58916  -0.58074  -0.57872
 Alpha  occ. eigenvalues --   -0.57839  -0.57544  -0.56511  -0.55885  -0.55613
 Alpha  occ. eigenvalues --   -0.55174  -0.55139  -0.55105  -0.55075  -0.54993
 Alpha  occ. eigenvalues --   -0.54609  -0.54418  -0.54360  -0.53662  -0.53584
 Alpha  occ. eigenvalues --   -0.52789  -0.52723  -0.52624  -0.52546  -0.52425
 Alpha  occ. eigenvalues --   -0.52286  -0.52126  -0.51702  -0.50893  -0.50486
 Alpha  occ. eigenvalues --   -0.49740  -0.49681  -0.49659  -0.48730  -0.48689
 Alpha  occ. eigenvalues --   -0.48621  -0.47419  -0.47351  -0.47274  -0.46928
 Alpha  occ. eigenvalues --   -0.46872  -0.46868  -0.46682  -0.46499  -0.46358
 Alpha  occ. eigenvalues --   -0.46338  -0.46264  -0.45745  -0.45332  -0.44576
 Alpha  occ. eigenvalues --   -0.44523  -0.44511  -0.44207  -0.44093  -0.44059
 Alpha  occ. eigenvalues --   -0.44017  -0.43624  -0.43502  -0.43422  -0.42706
 Alpha  occ. eigenvalues --   -0.42362  -0.42294  -0.42150  -0.42108  -0.42041
 Alpha  occ. eigenvalues --   -0.42019  -0.40926  -0.40797  -0.40363  -0.40157
 Alpha  occ. eigenvalues --   -0.40076  -0.39605  -0.39109  -0.39061  -0.39008
 Alpha  occ. eigenvalues --   -0.38820  -0.38659  -0.38498  -0.38457  -0.37233
 Alpha  occ. eigenvalues --   -0.36781  -0.36702  -0.36487  -0.36412  -0.36300
 Alpha  occ. eigenvalues --   -0.36232  -0.35844  -0.34330  -0.34226  -0.34031
 Alpha  occ. eigenvalues --   -0.33095  -0.33011  -0.32124  -0.31417  -0.30450
 Alpha  occ. eigenvalues --   -0.30346  -0.29824  -0.28860  -0.28263  -0.27806
 Alpha  occ. eigenvalues --   -0.27695  -0.27490  -0.26932  -0.26826  -0.26791
 Alpha  occ. eigenvalues --   -0.26676  -0.25197  -0.24963  -0.24925  -0.23764
 Alpha  occ. eigenvalues --   -0.23722  -0.22849  -0.22081  -0.21108  -0.19715
 Alpha virt. eigenvalues --   -0.11293  -0.09291  -0.05144  -0.04971  -0.04060
 Alpha virt. eigenvalues --   -0.03976  -0.03810  -0.03190  -0.03121  -0.03102
 Alpha virt. eigenvalues --   -0.01192  -0.01069  -0.00568  -0.00429  -0.00275
 Alpha virt. eigenvalues --    0.01053   0.01825   0.02321   0.03035   0.03114
 Alpha virt. eigenvalues --    0.03944   0.04448   0.04628   0.04930   0.05308
 Alpha virt. eigenvalues --    0.05607   0.06901   0.06954   0.07475   0.07601
 Alpha virt. eigenvalues --    0.08553   0.08718   0.09091   0.09438   0.10200
 Alpha virt. eigenvalues --    0.10302   0.11347   0.11483   0.11758   0.12125
 Alpha virt. eigenvalues --    0.12213   0.12275   0.12337   0.12481   0.12656
[...]
 Alpha virt. eigenvalues --    0.50738   0.50803   0.51068   0.51152   0.51267
 Alpha virt. eigenvalues --    0.51653   0.51831   0.51989   0.52051   0.52586
 Alpha virt. eigenvalues --    0.52700   0.52836   0.53349   0.53539   0.53809
 Alpha virt. eigenvalues --    0.54082   0.54326   0.54494   0.54679   0.54998
 Alpha virt. eigenvalues --    0.55194   0.55488   0.55778   0.56071   0.56224
 Alpha virt. eigenvalues --    0.56397   0.56504   0.56646   0.57030   0.57119
 Alpha virt. eigenvalues --    0.57321   0.57686   0.58174   0.58287   0.58657
 Alpha virt. eigenvalues --    0.58710   0.58798   0.59128   0.59307   0.60272
 Alpha virt. eigenvalues --    0.60689   0.60798   0.60920   0.61157   0.61316
 Alpha virt. eigenvalues --    0.61506   0.61822   0.61861   0.62412   0.62553
 Alpha virt. eigenvalues --    0.62742   0.63233   0.63454   0.63660   0.64060
 Alpha virt. eigenvalues --    0.64391   0.64618   0.65007   0.65095   0.65541
 Alpha virt. eigenvalues --    0.65742   0.65858   0.65948   0.66095   0.66676
 Alpha virt. eigenvalues --    0.66791   0.67231   0.67693   0.68577   0.69362
 Alpha virt. eigenvalues --    0.69831   0.70348   0.71267   0.71603   0.71805
 Alpha virt. eigenvalues --    0.72295   0.72575   0.73059   0.73584   0.73787
 Alpha virt. eigenvalues --    0.74912   0.75265   0.76010   0.76480   0.77200
 Alpha virt. eigenvalues --    0.77404   0.77565   0.77947   0.78284   0.78799
 Alpha virt. eigenvalues --    0.79206   0.79392   0.79903   0.80640   0.80749
 Alpha virt. eigenvalues --    0.81049   0.81164   0.81481   0.81619   0.82036
 Alpha virt. eigenvalues --    0.82110   0.82372   0.82451   0.82661   0.83036
 Alpha virt. eigenvalues --    0.83202   0.83526   0.83758   0.83921   0.84241
 Alpha virt. eigenvalues --    0.84621   0.84973   0.85073   0.85460   0.85916
 Alpha virt. eigenvalues --    0.86192   0.86387   0.86782   0.87339   0.87484
 Alpha virt. eigenvalues --    0.87557   0.88367   0.88511   0.88939   0.89673
 Alpha virt. eigenvalues --    0.90063   0.90791   0.91042   0.91849   0.92082
 Alpha virt. eigenvalues --    0.92252   0.93124   0.93872   0.94101   0.94320
 Alpha virt. eigenvalues --    0.94500   0.94729   0.95311   0.95888   0.96393
 Alpha virt. eigenvalues --    0.96814   0.97063   0.98266   0.98659   0.98894
 Alpha virt. eigenvalues --    0.99158   0.99666   1.00320   1.00360   1.00809
 Alpha virt. eigenvalues --    1.01604   1.02121   1.02781   1.03190   1.03365
 Alpha virt. eigenvalues --    1.03778   1.04347   1.04922   1.05056   1.05480
 Alpha virt. eigenvalues --    1.05963   1.06300   1.06724   1.07279   1.07867
 Alpha virt. eigenvalues --    1.08879   1.09278   1.10083   1.10154   1.10844
 Alpha virt. eigenvalues --    1.10988   1.11260   1.11778   1.11812   1.12242
 Alpha virt. eigenvalues --    1.12382   1.12733   1.13542   1.13612   1.14877
 Alpha virt. eigenvalues --    1.14997   1.15516   1.15961   1.16220   1.16891
 Alpha virt. eigenvalues --    1.17158   1.17459   1.18024   1.18326   1.18760
 Alpha virt. eigenvalues --    1.19204   1.19289   1.19697   1.19791   1.20201
 Alpha virt. eigenvalues --    1.20382   1.20458   1.21191   1.21652   1.21706
 Alpha virt. eigenvalues --    1.21907   1.22237   1.22358   1.22542   1.23107
 Alpha virt. eigenvalues --    1.23295   1.23375   1.23524   1.23561   1.23644
 Alpha virt. eigenvalues --    1.24109   1.24421   1.25103   1.25367   1.26428
 Alpha virt. eigenvalues --    1.26604   1.27089   1.27520   1.27719   1.28429
 Alpha virt. eigenvalues --    1.28697   1.29196   1.29586   1.29845   1.29971
 Alpha virt. eigenvalues --    1.30523   1.30952   1.31220   1.31289   1.31462
 Alpha virt. eigenvalues --    1.31840   1.31976   1.32486   1.32869   1.33550
 Alpha virt. eigenvalues --    1.34055   1.34205   1.34555   1.34803   1.35221
 Alpha virt. eigenvalues --    1.35403   1.35952   1.36079   1.36341   1.36695
 Alpha virt. eigenvalues --    1.36856   1.37227   1.37714   1.38090   1.38205
 Alpha virt. eigenvalues --    1.38350   1.38460   1.38571   1.38694   1.39006
 Alpha virt. eigenvalues --    1.39346   1.39889   1.39964   1.40582   1.41302
 Alpha virt. eigenvalues --    1.41446   1.41736   1.41882   1.42147   1.42377
 Alpha virt. eigenvalues --    1.43215   1.43291   1.43517   1.43669   1.43963
 Alpha virt. eigenvalues --    1.44662   1.44831   1.45028   1.45182   1.45312
 Alpha virt. eigenvalues --    1.46385   1.46582   1.46820   1.47258   1.48687
 Alpha virt. eigenvalues --    1.48912   1.49656   1.50203   1.51270   1.51400
 Alpha virt. eigenvalues --    1.52125   1.52997   1.53250   1.53982   1.55090
 Alpha virt. eigenvalues --    1.55291   1.56139   1.57143   1.57988   1.58953
 Alpha virt. eigenvalues --    1.59744   1.60845   1.61634   1.61907   1.62116
 Alpha virt. eigenvalues --    1.62592   1.63460   1.63645   1.63745   1.63924
 Alpha virt. eigenvalues --    1.64200   1.65176   1.65867   1.66402   1.66550
 Alpha virt. eigenvalues --    1.67180   1.67773   1.68467   1.69290   1.69526
 Alpha virt. eigenvalues --    1.69857   1.70225   1.70437   1.70614   1.71233
 Alpha virt. eigenvalues --    1.71516   1.71974   1.72907   1.73121   1.73542
 Alpha virt. eigenvalues --    1.73855   1.74114   1.74450   1.75082   1.75672
 Alpha virt. eigenvalues --    1.75916   1.76001   1.76172   1.76225   1.76423
 Alpha virt. eigenvalues --    1.76473   1.76505   1.76545   1.76776   1.76817
 Alpha virt. eigenvalues --    1.76902   1.77095   1.77318   1.77777   1.77954
 Alpha virt. eigenvalues --    1.78190   1.78321   1.78628   1.78950   1.79380
 Alpha virt. eigenvalues --    1.79428   1.79908   1.80255   1.80935   1.81297
 Alpha virt. eigenvalues --    1.81429   1.81478   1.81744   1.81795   1.82061
 Alpha virt. eigenvalues --    1.82305   1.82556   1.83042   1.83413   1.83709
 Alpha virt. eigenvalues --    1.84102   1.85073   1.85569   1.85674   1.85809
 Alpha virt. eigenvalues --    1.86018   1.86162   1.86283   1.86435   1.86686
 Alpha virt. eigenvalues --    1.86743   1.87060   1.87303   1.87573   1.87686
 Alpha virt. eigenvalues --    1.88192   1.88491   1.88778   1.89759   1.90001
 Alpha virt. eigenvalues --    1.90771   1.91599   1.91675   1.92283   1.92865
 Alpha virt. eigenvalues --    1.93324   1.93552   1.94567   1.95020   1.95396
 Alpha virt. eigenvalues --    1.95674   1.96186   1.96252   1.96417   1.96772
 Alpha virt. eigenvalues --    1.97187   1.97655   1.97898   1.98517   1.99105
 Alpha virt. eigenvalues --    1.99525   2.00317   2.01158   2.02211   2.02809
 Alpha virt. eigenvalues --    2.03004   2.04096   2.04699   2.04855   2.05107
 Alpha virt. eigenvalues --    2.05707   2.05856   2.05973   2.06135   2.06201
 Alpha virt. eigenvalues --    2.06890   2.07379   2.07658   2.08054   2.08386
 Alpha virt. eigenvalues --    2.09081   2.09418   2.09805   2.10285   2.11502
 Alpha virt. eigenvalues --    2.11850   2.11901   2.12607   2.13465   2.13904
 Alpha virt. eigenvalues --    2.14897   2.15134   2.15904   2.16252   2.16634
 Alpha virt. eigenvalues --    2.16731   2.16896   2.17206   2.17284   2.17651
 Alpha virt. eigenvalues --    2.17751   2.18395   2.18716   2.19924   2.20058
 Alpha virt. eigenvalues --    2.20641   2.21075   2.21173   2.21326   2.21811
 Alpha virt. eigenvalues --    2.22567   2.23333   2.23546   2.23890   2.24378
 Alpha virt. eigenvalues --    2.24659   2.24865   2.24973   2.25495   2.25949
 Alpha virt. eigenvalues --    2.27020   2.27191   2.27636   2.28107   2.28406
 Alpha virt. eigenvalues --    2.28591   2.28660   2.29077   2.29173   2.29836
 Alpha virt. eigenvalues --    2.30005   2.30748   2.31907   2.32078   2.32273
 Alpha virt. eigenvalues --    2.32623   2.32701   2.33123   2.33348   2.33542
 Alpha virt. eigenvalues --    2.33707   2.33872   2.33947   2.34544   2.34920
 Alpha virt. eigenvalues --    2.35029   2.36161   2.36329   2.36515   2.36651
 Alpha virt. eigenvalues --    2.36818   2.36896   2.37339   2.37547   2.38543
 Alpha virt. eigenvalues --    2.38929   2.39294   2.39820   2.40317   2.40527
 Alpha virt. eigenvalues --    2.40933   2.41774   2.42004   2.42756   2.43228
 Alpha virt. eigenvalues --    2.43732   2.44183   2.44328   2.45018   2.45776
 Alpha virt. eigenvalues --    2.46036   2.46539   2.47399   2.47652   2.48243
 Alpha virt. eigenvalues --    2.48771   2.49412   2.49591   2.50034   2.50811
 Alpha virt. eigenvalues --    2.50959   2.51262   2.51498   2.52242   2.52335
 Alpha virt. eigenvalues --    2.53189   2.53221   2.53845   2.54163   2.54739
 Alpha virt. eigenvalues --    2.54928   2.55329   2.55380   2.55596   2.55744
 Alpha virt. eigenvalues --    2.56143   2.56414   2.56969   2.57441   2.57603
 Alpha virt. eigenvalues --    2.58068   2.58907   2.59077   2.59989   2.60973
 Alpha virt. eigenvalues --    2.61447   2.62195   2.62492   2.63432   2.63757
 Alpha virt. eigenvalues --    2.64247   2.65463   2.65662   2.66269   2.67010
 Alpha virt. eigenvalues --    2.67606   2.68276   2.69132   2.70271   2.71264
 Alpha virt. eigenvalues --    2.71985   2.72545   2.73154   2.73438   2.74127
 Alpha virt. eigenvalues --    2.74451   2.75080   2.75182   2.75501   2.75799
 Alpha virt. eigenvalues --    2.76103   2.77394   2.77708   2.78878   2.79501
 Alpha virt. eigenvalues --    2.80375   2.81008   2.81243   2.81376   2.82326
 Alpha virt. eigenvalues --    2.82723   2.85106   2.85985   2.86615   2.86697
 Alpha virt. eigenvalues --    2.88143   2.89400   2.89680   2.91692   2.91808
 Alpha virt. eigenvalues --    2.94207   2.94733   2.95141   2.95479   2.96015
 Alpha virt. eigenvalues --    2.97122   2.97782   2.97958   2.98037   2.98606
 Alpha virt. eigenvalues --    2.99297   3.00651   3.00788   3.04424   3.04737
 Alpha virt. eigenvalues --    3.05581   3.05737   3.07083   3.07508   3.08477
 Alpha virt. eigenvalues --    3.08784   3.09167   3.10297   3.10321   3.11015
 Alpha virt. eigenvalues --    3.11319   3.11741   3.14079   3.14881   3.14980
 Alpha virt. eigenvalues --    3.15247   3.15569   3.15899   3.15940   3.16030
 Alpha virt. eigenvalues --    3.18668   3.19928   3.20883   3.23266   3.26087
 Alpha virt. eigenvalues --    3.28339   3.32349   3.35840   3.36250   3.37137
 Alpha virt. eigenvalues --    3.37478   3.37549   3.38266   3.39015   3.39401
 Alpha virt. eigenvalues --    3.41394   3.49552   3.49780   3.50021   3.58749
 Alpha virt. eigenvalues --    3.60721   3.63171   3.74090   3.75993   3.76778
 Alpha virt. eigenvalues --    3.78047  13.09446
          Condensed to atoms (all electrons):
 Mulliken charges:
               1
     1  C    0.267675
     2  C    0.303506
     3  C   -0.098952
     4  C    0.294194
     5  C    0.295101
     6  C    0.102422
     7  C    0.266857
     8  C    0.301248
     9  C   -0.109345
    10  C    0.285643
    11  C   -0.131263
    12  C    0.294309
    13  H    0.106586
    14  H    0.101696
    15  H    0.102632
    16  N   -0.621286
    17  N   -0.616488
    18  N   -0.607912
    19  N   -0.607519
    20  C   -0.112656
    21  H    0.101019
    22  C   -0.156242
    23  H    0.109664
    24  C    0.087799
    25  C   -0.103402
    26  H    0.102138
    27  C    0.213904
    28  C    0.006703
    29  C    0.007120
    30  C   -0.008075
    31  C   -0.242250
    32  C    0.348373
    33  C    0.352316
    34  C    0.274913
    35  C    0.276209
    36  C    0.289603
    37  C   -0.239932
    38  C    0.349780
    39  C    0.346471
    40  C    0.275435
    41  C    0.274241
    42  C    0.289060
    43  C   -0.239431
    44  C    0.345807
    45  C    0.350785
    46  C    0.274806
    47  C    0.275932
    48  C    0.289459
    49  Ni   0.530519
    50  C   -0.335138
    51  C   -0.049166
    52  H    0.122098
    53  C   -0.248199
    54  C   -0.067452
    55  H    0.101407
    56  F   -0.282640
    57  F   -0.285805
    58  F   -0.282576
    59  F   -0.286576
    60  F   -0.286489
    61  F   -0.282604
    62  F   -0.285998
    63  F   -0.282566
    64  F   -0.286662
    65  F   -0.286796
    66  F   -0.286926
    67  F   -0.286465
    68  F   -0.282164
    69  F   -0.285480
    70  F   -0.282316
    71  H    0.095267
    72  H    0.110220
    73  C   -0.016335
    74  C   -0.076235
    75  C   -0.283573
    76  H    0.139522
    77  S    0.283726
    78  S    0.247210
    79  C   -0.286297
    80  H    0.127531
    81  O   -0.523774
    82  H    0.332079
 Sum of Mulliken charges =   0.00000
 Mulliken charges with hydrogens summed into heavy atoms:
               1
     1  C    0.267675
     2  C    0.303506
     3  C    0.003680
     4  C    0.294194
     5  C    0.295101
     6  C    0.102422
     7  C    0.266857
     8  C    0.301248
     9  C   -0.007649
    10  C    0.285643
    11  C   -0.024676
    12  C    0.294309
    16  N   -0.621286
    17  N   -0.616488
    18  N   -0.607912
    19  N   -0.607519
    20  C   -0.011637
    22  C   -0.046578
    24  C    0.087799
    25  C   -0.001264
    27  C    0.213904
    28  C    0.006703
    29  C    0.007120
    30  C   -0.008075
    31  C   -0.242250
    32  C    0.348373
    33  C    0.352316
    34  C    0.274913
    35  C    0.276209
    36  C    0.289603
    37  C   -0.239932
    38  C    0.349780
    39  C    0.346471
    40  C    0.275435
    41  C    0.274241
    42  C    0.289060
    43  C   -0.239431
    44  C    0.345807
    45  C    0.350785
    46  C    0.274806
    47  C    0.275932
    48  C    0.289459
    49  Ni   0.530519
    50  C   -0.335138
    51  C    0.061054
    53  C   -0.248199
    54  C    0.027815
    56  F   -0.282640
    57  F   -0.285805
    58  F   -0.282576
    59  F   -0.286576
    60  F   -0.286489
    61  F   -0.282604
    62  F   -0.285998
    63  F   -0.282566
    64  F   -0.286662
    65  F   -0.286796
    66  F   -0.286926
    67  F   -0.286465
    68  F   -0.282164
    69  F   -0.285480
    70  F   -0.282316
    73  C    0.085072
    74  C    0.045863
    75  C   -0.144051
    77  S    0.283726
    78  S    0.247210
    79  C   -0.158767
    81  O   -0.191694
 Electronic spatial extent (au):  <R**2>=          65235.7542
 Charge=              0.0000 electrons
 Dipole moment (field-independent basis, Debye):
    X=             -1.8981    Y=             -3.8905    Z=             -2.0945  Tot=              4.8090
 Quadrupole moment (field-independent basis, Debye-Ang):
   XX=           -397.1232   YY=           -356.2723   ZZ=           -401.4790
   XY=             10.5746   XZ=              5.4166   YZ=             20.8639
 Traceless Quadrupole moment (field-independent basis, Debye-Ang):
   XX=            -12.1650   YY=             28.6858   ZZ=            -16.5209
   XY=             10.5746   XZ=              5.4166   YZ=             20.8639
 Octapole moment (field-independent basis, Debye-Ang**2):
  XXX=            -11.0997  YYY=           -233.1256  ZZZ=              0.0402  XYY=            -54.8328
  XXY=             23.2598  XXZ=             -2.4749  XZZ=            -19.2562  YZZ=             -8.2645
  YYZ=            -74.2161  XYZ=            -14.5554
 Hexadecapole moment (field-independent basis, Debye-Ang**3):
 XXXX=         -40921.4733 YYYY=         -34241.1876 ZZZZ=          -5484.8993 XXXY=            -33.7141
 XXXZ=            -16.5806 YYYX=            471.3502 YYYZ=            526.4994 ZZZX=             16.7581
 ZZZY=              2.4628 XXYY=         -11286.9385 XXZZ=          -7706.7173 YYZZ=          -6764.0565
 XXYZ=            120.4940 YYXZ=            199.2452 ZZXY=             56.3379
 N-N= 1.172762710756D+04 E-N=-3.409932983380D+04  KE= 4.432126957002D+03
 Unable to Open any file for archive entry.
 1\1\GINC-CCNN738\FOpt\RB3LYP\GenECP\C46H13F15N4Ni1O1S2\CPI\25-Oct-2021
 \0\\# opt b3lyp/genecp geom=connectivity scf=maxcyc=1000\\title\\0,1\C
 ,-1.2704253962,-2.4902706735,-0.779906459\C,1.243356807,2.8570990175,-
 0.2909592561\C,3.411794195,2.5749055304,0.2401571839\C,2.7145939415,1.
 3102130496,0.2219420524\C,2.6643954946,-1.1291163739,0.069775696\C,2.4
 613440726,-3.2747704262,-0.6356260363\C,1.2006147789,-2.5523505719,-0.
 7386249679\C,-1.1913152214,2.8906312259,-0.2382044807\C,-2.4438563115,
 3.5829791808,-0.0357767293\C,-2.7041166864,-1.0593790247,0.0725291743\
 C,-3.4223191627,-2.2685913597,-0.1598958694\C,-2.6834798853,1.37226727
 ,0.3034122625\H,-4.4763439743,-2.4209871723,0.0191776298\H,-2.59180913
 6,4.646857244,-0.1448526506\H,4.4566208584,2.7065838535,0.4784632141\N
 ,1.352699191,-1.2491014092,-0.3100681553\N,-1.3911491702,-1.2067272721
 ,-0.2936379935\N,1.3849363713,1.5069394459,-0.0955681299\N,-1.35691265
 16,1.5416604264,-0.0463133008\C,2.5153253975,3.523601427,-0.1264452148
 \H,2.6768297505,4.5862815113,-0.2316773203\C,3.3405353985,-2.372512377
 5,-0.0837442678\H,4.3861394906,-2.5450442959,0.1224776704\C,-2.5568711
 927,-3.1561995831,-0.7505343145\C,-3.3495042008,2.6531220699,0.3538608
 967\H,-4.3847636731,2.8073010965,0.6187370794\C,-0.0413659473,-3.11009
 88476,-1.0699134676\C,-3.3181132283,0.1499423076,0.4483758774\C,3.3154
 792117,0.0742833187,0.3949882014\C,0.0308414207,3.5294271783,-0.452124
 6031\C,4.7420966861,0.0060464452,0.8280762094\C,5.7983816358,0.3302534
 438,-0.0294587592\C,5.0763263897,-0.412930058,2.1204474237\C,7.1285697
 032,0.2548112918,0.3777427378\C,6.3989282865,-0.5010499419,2.548652922
 7\C,7.4280867164,-0.1644714591,1.6720568691\C,0.0577527822,4.996702368
 2,-0.7228216766\C,0.3453712895,5.4817253791,-2.0034166981\C,-0.1801571
 717,5.9456445045,0.2772128014\C,0.3904718754,6.8457219051,-2.283960261
 6\C,-0.146194399,7.3143516706,0.0200292778\C,0.142331363,7.7643489227,
 -1.2666166284\C,-4.7406173032,0.1040722444,0.8963980346\C,-5.798706710
 1,0.4971307228,0.0700113921\C,-5.070917059,-0.365644054,2.1725763323\C
 ,-7.1250913135,0.4414417005,0.4924992607\C,-6.3898685209,-0.435186549,
 2.6154255076\C,-7.420092709,-0.0283734426,1.7704262921\Ni,-0.001879564
 3,0.1503591142,-0.1914136266\C,-2.9220530861,-4.4981213703,-1.22027950
 13\C,-3.3929705546,-6.3484099511,-2.5884274439\H,-2.4777840167,-4.4693
 335191,-3.3419978175\C,2.8313073045,-4.651929909,-0.9605577519\C,3.261
 4845553,-6.6830350854,-2.0490818603\H,1.9553167901,-5.0995040997,-2.88
 28109599\F,4.1096065422,-0.7408512321,2.9868794458\F,6.6859845773,-0.9
 005995452,3.7919360078\F,8.6992549712,-0.2420567234,2.0719988044\F,8.1
 165014006,0.5748559459,-0.4651509697\F,5.5456201888,0.7300710265,-1.28
 32025162\F,0.5858973668,4.6251618175,-3.004142464\F,0.6655190227,7.277
 235196,-3.5194059003\F,0.1803402611,9.0737086725,-1.5237292556\F,-0.38
 02399505,8.1962654773,0.9981261377\F,-0.4532629858,5.5468501771,1.5271
 810521\F,-5.5519719148,0.9442386698,-1.1690637997\F,-8.1141284718,0.82
 68819008,-0.3212470513\F,-8.6876519022,-0.0883956544,2.1842300477\F,-6
 .6722633413,-0.884633833,3.8425668847\F,-4.1036314036,-0.762277274,3.0
 090131564\H,3.1873520164,-7.4182167821,-2.8425687143\H,-3.4289144167,-
 6.919052103,-3.5090545113\C,2.5906672265,-5.4278389868,-2.0718578885\C
 ,-2.860658498,-5.0285894668,-2.4948819369\C,-3.8665272769,-6.812833500
 5,-1.3918277401\H,-4.3156686291,-7.7729434666,-1.1776817766\S,-3.65983
 68,-5.6509746967,-0.1251424246\S,3.9115256661,-5.5022058277,0.13729757
 91\C,4.012588813,-6.8679676232,-0.9193870356\H,4.6049693593,-7.7282803
 789,-0.6399652324\O,-0.0040902798,-4.349971422,-1.5943487697\H,-0.8945
 205233,-4.743755856,-1.6247052264\\Version=ES64L-G16RevC.01\State=1-A\
 HF=-4518.1072554\RMSD=4.468e-09\RMSF=2.708e-06\Dipole=-0.797312,-1.509
 7491,-0.81522\Quadrupole=-8.4914917,20.9103439,-12.4188522,8.863136,4.
 4441471,15.2417413\PG=C01 [X(C46H13F15N4Ni1O1S2)]\\@
 The archive entry for this job was punched.


 WHEN YOU REACH FOR THE STARS, YOU MAY NOT QUITE GET ONE,
 BUT YOU WON'T COME UP WITH A HANDFUL OF MUD, EITHER.

                                         -- LEO BURNETT (AD AGENCY HEAD)
 Job cpu time:       1 days 14 hours 42 minutes 45.4 seconds.
 Elapsed time:       0 days  2 hours 25 minutes 35.2 seconds.
 File lengths (MBytes):  RWF=    649 Int=      0 D2E=      0 Chk=     83 Scr=      1
 Normal termination of Gaussian 16 at Mon Oct 25 17:31:52 2021.
